% Model:              fine_3d_8electrodes.mph
% Version:            COMSOL 5.3.0.260
% Date:               Apr 27 2020, 13:44
% Dimension:          3
% Nodes:              6633
% Expressions:        1
% Description:        Electric potential
% Length unit:        m
% X                       Y                        Z                        V (V)
-0.005                    -8.0E-4                  0                        0.07952951445991147
-0.00495                  -8.0E-4                  0                        0.07809895811062535
-0.0049                   -8.0E-4                  0                        0.0776083384179381
-0.00485                  -8.0E-4                  0                        0.07752380929696295
-0.0048000000000000004    -8.0E-4                  0                        0.07735315718646417
-0.00475                  -8.0E-4                  0                        0.07723755696222886
-0.0047                   -8.0E-4                  0                        0.07712052115588425
-0.0046500000000000005    -8.0E-4                  0                        0.07700449647171503
-0.0046                   -8.0E-4                  0                        0.07689913928727363
-0.00455                  -8.0E-4                  0                        0.07679342382349166
-0.0045000000000000005    -8.0E-4                  0                        0.0766886081542531
-0.00445                  -8.0E-4                  0                        0.0765840419719782
-0.0044                   -8.0E-4                  0                        0.07647871579115192
-0.00435                  -8.0E-4                  0                        0.07637246854539513
-0.0043                   -8.0E-4                  0                        0.07626497103469486
-0.00425                  -8.0E-4                  0                        0.07615632629122476
-0.0042                   -8.0E-4                  0                        0.07604635994719691
-0.00415                  -8.0E-4                  0                        0.07593523604859616
-0.0041                   -8.0E-4                  0                        0.07582323622476934
-0.00405                  -8.0E-4                  0                        0.07571049590633612
-0.004                    -8.0E-4                  0                        0.07559727891472375
-0.00395                  -8.0E-4                  0                        0.07548419401316721
-0.0039                   -8.0E-4                  0                        0.07537183847322254
-0.00385                  -8.0E-4                  0                        0.0752603780893734
-0.0038                   -8.0E-4                  0                        0.0751498940316731
-0.00375                  -8.0E-4                  0                        0.07504096656868794
-0.0037                   -8.0E-4                  0                        0.07493472126174797
-0.00365                  -8.0E-4                  0                        0.07483180864366738
-0.0036                   -8.0E-4                  0                        0.0747326191019961
-0.00355                  -8.0E-4                  0                        0.07463776496275046
-0.0035                   -8.0E-4                  0                        0.07454825358407156
-0.00345                  -8.0E-4                  0                        0.0744642464955765
-0.0034000000000000002    -8.0E-4                  0                        0.07438621980003933
-0.00335                  -8.0E-4                  0                        0.07431664737714529
-0.0033                   -8.0E-4                  0                        0.07425568778120192
-0.0032500000000000003    -8.0E-4                  0                        0.07420423680689084
-0.0031999999999999997    -8.0E-4                  0                        0.07416279663165355
-0.00315                  -8.0E-4                  0                        0.07413158152663223
-0.0031000000000000003    -8.0E-4                  0                        0.07411365347776538
-0.0030499999999999998    -8.0E-4                  0                        0.0741094810933846
-0.003                    -8.0E-4                  0                        0.07412011165738129
-0.00295                  -8.0E-4                  0                        0.07414660155161985
-0.0029                   -8.0E-4                  0                        0.0741902732580625
-0.00285                  -8.0E-4                  0                        0.07425169642649582
-0.0028                   -8.0E-4                  0                        0.07433165234178558
-0.00275                  -8.0E-4                  0                        0.07443392583094258
-0.0027                   -8.0E-4                  0                        0.07455865048995
-0.00265                  -8.0E-4                  0                        0.07470726134271334
-0.0026                   -8.0E-4                  0                        0.07488071979972963
-0.00255                  -8.0E-4                  0                        0.07507955180971468
-0.0025                   -8.0E-4                  0                        0.07530759015070813
-0.00245                  -8.0E-4                  0                        0.07556550096771375
-0.0024                   -8.0E-4                  0                        0.0758548276149454
-0.00235                  -8.0E-4                  0                        0.07617734219721697
-0.0023                   -8.0E-4                  0                        0.07653440910891438
-0.00225                  -8.0E-4                  0                        0.0769270079422785
-0.0022                   -8.0E-4                  0                        0.07735510984982447
-0.00215                  -8.0E-4                  0                        0.07782583115897986
-0.0021                   -8.0E-4                  0                        0.07833743875535334
-0.00205                  -8.0E-4                  0                        0.07889243026291123
-0.002                    -8.0E-4                  0                        0.07949165078493686
-0.00195                  -8.0E-4                  0                        0.08013539347405481
-0.0018999999999999998    -8.0E-4                  0                        0.08082776517399165
-0.00185                  -8.0E-4                  0                        0.08157120264939177
-0.0018                   -8.0E-4                  0                        0.08236671352812011
-0.0017499999999999998    -8.0E-4                  0                        0.08321698887632065
-0.0017000000000000001    -8.0E-4                  0                        0.08412191553526936
-0.00165                  -8.0E-4                  0                        0.08508379782202019
-0.0015999999999999999    -8.0E-4                  0                        0.08610275680167875
-0.0015499999999999997    -8.0E-4                  0                        0.08718701255633549
-0.0015                   -8.0E-4                  0                        0.08833339428444677
-0.00145                  -8.0E-4                  0                        0.08954672902472162
-0.0013999999999999998    -8.0E-4                  0                        0.09082617658663725
-0.00135                  -8.0E-4                  0                        0.09217028029342529
-0.0013                   -8.0E-4                  0                        0.09359032127968622
-0.0012499999999999998    -8.0E-4                  0                        0.09508357953118683
-0.0012000000000000001    -8.0E-4                  0                        0.09665210618640499
-0.00115                  -8.0E-4                  0                        0.0982986787889005
-0.0010999999999999998    -8.0E-4                  0                        0.10002625827381104
-0.0010499999999999997    -8.0E-4                  0                        0.10183532784069707
-0.001                    -8.0E-4                  0                        0.10372607514067574
-9.500000000000003E-4     -8.0E-4                  0                        0.10570717566823329
-8.999999999999998E-4     -8.0E-4                  0                        0.10777849837877844
-8.500000000000001E-4     -8.0E-4                  0                        0.1099418560233744
-7.999999999999995E-4     -8.0E-4                  0                        0.1121998048657661
-7.499999999999998E-4     -8.0E-4                  0                        0.11455281411874269
-7.000000000000001E-4     -8.0E-4                  0                        0.11700820490909045
-6.499999999999995E-4     -8.0E-4                  0                        0.11956767415063205
-5.999999999999998E-4     -8.0E-4                  0                        0.12223303224146229
-5.500000000000001E-4     -8.0E-4                  0                        0.12500819630688567
-4.999999999999996E-4     -8.0E-4                  0                        0.12789668808259375
-4.499999999999999E-4     -8.0E-4                  0                        0.13089937050572137
-4.000000000000002E-4     -8.0E-4                  0                        0.13401556667707681
-3.499999999999996E-4     -8.0E-4                  0                        0.1372622966421096
-2.999999999999999E-4     -8.0E-4                  0                        0.14063394383256514
-2.500000000000002E-4     -8.0E-4                  0                        0.14413807960825217
-1.9999999999999966E-4    -8.0E-4                  0                        0.1477752436393648
-1.4999999999999996E-4    -8.0E-4                  0                        0.15154489295743093
-1.0000000000000026E-4    -8.0E-4                  0                        0.1554585466416919
-4.99999999999997E-5      -8.0E-4                  0                        0.1595220903287557
0                         -8.0E-4                  0                        0.16373733022581702
5.0000000000000565E-5     -8.0E-4                  0                        0.1681106677304344
1.0000000000000026E-4     -8.0E-4                  0                        0.17264575014593847
1.4999999999999996E-4     -8.0E-4                  0                        0.177345579520191
2.0000000000000052E-4     -8.0E-4                  0                        0.1822091230196562
2.500000000000002E-4      -8.0E-4                  0                        0.18726355843622655
2.999999999999999E-4      -8.0E-4                  0                        0.19249971983652678
3.500000000000005E-4      -8.0E-4                  0                        0.19793016552052153
4.000000000000002E-4      -8.0E-4                  0                        0.2035543805029667
4.499999999999999E-4      -8.0E-4                  0                        0.20937497568070612
5.000000000000004E-4      -8.0E-4                  0                        0.21541471654595823
5.500000000000001E-4      -8.0E-4                  0                        0.2216745361443239
5.999999999999998E-4      -8.0E-4                  0                        0.22816534510163114
6.500000000000004E-4      -8.0E-4                  0                        0.23488899281651607
7.000000000000001E-4      -8.0E-4                  0                        0.2418651561323215
7.499999999999998E-4      -8.0E-4                  0                        0.2490946728716954
8.000000000000004E-4      -8.0E-4                  0                        0.2565769217751929
8.500000000000001E-4      -8.0E-4                  0                        0.26435500377904186
8.999999999999998E-4      -8.0E-4                  0                        0.2724211785516816
9.500000000000003E-4      -8.0E-4                  0                        0.28079614104117956
0.001                     -8.0E-4                  0                        0.2894827875046276
0.0010500000000000006     -8.0E-4                  0                        0.2984902928365029
0.0011000000000000003     -8.0E-4                  0                        0.30785981940186813
0.00115                   -8.0E-4                  0                        0.31759395501052773
0.0012000000000000005     -8.0E-4                  0                        0.327719146628168
0.0012500000000000002     -8.0E-4                  0                        0.33825182673566045
0.0013                    -8.0E-4                  0                        0.34921672751907606
0.0013500000000000005     -8.0E-4                  0                        0.36063303548782677
0.0014000000000000002     -8.0E-4                  0                        0.372510658115028
0.00145                   -8.0E-4                  0                        0.3849336288728936
0.0015000000000000005     -8.0E-4                  0                        0.39790192619739556
0.0015500000000000002     -8.0E-4                  0                        0.4114656509628573
0.0015999999999999999     -8.0E-4                  0                        0.42564541986759097
0.0016500000000000004     -8.0E-4                  0                        0.4404678268784987
0.0017000000000000001     -8.0E-4                  0                        0.4560551532939144
0.0017499999999999998     -8.0E-4                  0                        0.4724222999954806
0.0018000000000000004     -8.0E-4                  0                        0.4896537795625877
0.00185                   -8.0E-4                  0                        0.5078157099780545
0.0019000000000000006     -8.0E-4                  0                        0.5269688789755458
0.0019500000000000003     -8.0E-4                  0                        0.5472353880506705
0.002                     -8.0E-4                  0                        0.5686761478419842
0.0020500000000000006     -8.0E-4                  0                        0.5915486089005753
0.0021000000000000003     -8.0E-4                  0                        0.6159040978382041
0.00215                   -8.0E-4                  0                        0.6419937067525141
0.0022000000000000006     -8.0E-4                  0                        0.6699011981365655
0.0022500000000000003     -8.0E-4                  0                        0.6997401039295729
0.0023                    -8.0E-4                  0                        0.7321545760329493
0.0023500000000000005     -8.0E-4                  0                        0.7671891279181376
0.0024000000000000002     -8.0E-4                  0                        0.8054591250807301
0.00245                   -8.0E-4                  0                        0.8472516853698394
0.0025000000000000005     -8.0E-4                  0                        0.8930728529666613
0.00255                   -8.0E-4                  0                        0.9437254607933165
0.0026                    -8.0E-4                  0                        0.999710848022748
0.0026500000000000004     -8.0E-4                  0                        1.0631178166393713
0.0027                    -8.0E-4                  0                        1.133917517006437
0.00275                   -8.0E-4                  0                        1.2151881327690237
0.0028000000000000004     -8.0E-4                  0                        1.3100839933971986
0.002850000000000001      -8.0E-4                  0                        1.4193249449364158
0.0029000000000000007     -8.0E-4                  0                        1.555611758915736
0.0029500000000000004     -8.0E-4                  0                        1.7208372133406595
0.003                     -8.0E-4                  0                        1.8955071881989787
0.0030499999999999998     -8.0E-4                  0                        2.1232258891741997
0.0030999999999999995     -8.0E-4                  0                        2.206721969866923
0.003150000000000001      -8.0E-4                  0                        2.2575641160688122
0.0032000000000000006     -8.0E-4                  0                        2.2756560090666875
0.0032500000000000003     -8.0E-4                  0                        2.2894842668725883
0.0033                    -8.0E-4                  0                        2.291818629004129
0.0033499999999999997     -8.0E-4                  0                        2.288841151244912
0.003400000000000001      -8.0E-4                  0                        2.280815559328175
0.003450000000000001      -8.0E-4                  0                        2.2597616354572945
0.0035000000000000005     -8.0E-4                  0                        2.2150357869134343
0.00355                   -8.0E-4                  0                        2.1455896500711478
0.0036                    -8.0E-4                  0                        1.9425505916999297
0.0036499999999999996     -8.0E-4                  0                        1.7491423993273354
0.003700000000000001      -8.0E-4                  0                        1.6034991335378683
0.0037500000000000007     -8.0E-4                  0                        1.4823107860950195
0.0038000000000000004     -8.0E-4                  0                        1.3837385580362536
0.00385                   -8.0E-4                  0                        1.3000742087722437
0.0039                    -8.0E-4                  0                        1.228919778987382
0.0039499999999999995     -8.0E-4                  0                        1.1672843688644303
0.004000000000000001      -8.0E-4                  0                        1.1134991673597336
0.004050000000000001      -8.0E-4                  0                        1.0665255539558487
0.0041                    -8.0E-4                  0                        1.0248057879046466
0.00415                   -8.0E-4                  0                        0.9878075611303473
0.0042                    -8.0E-4                  0                        0.9547332966061373
0.004250000000000001      -8.0E-4                  0                        0.9251470376528933
0.004300000000000001      -8.0E-4                  0                        0.8986252627473978
0.004350000000000001      -8.0E-4                  0                        0.8746793693302227
0.0044                    -8.0E-4                  0                        0.8530910506601672
0.00445                   -8.0E-4                  0                        0.8334303632423158
0.0045                    -8.0E-4                  0                        0.815523011244712
0.004550000000000001      -8.0E-4                  0                        0.7991657512964799
0.004600000000000001      -8.0E-4                  0                        0.7842331679665416
0.0046500000000000005     -8.0E-4                  0                        0.7705936528521453
0.0047                    -8.0E-4                  0                        0.758118588967329
0.00475                   -8.0E-4                  0                        0.7467516980791817
0.0048                    -8.0E-4                  0                        0.7378179398798373
0.004850000000000001      -8.0E-4                  0                        0.7285262089634059
0.004900000000000001      -8.0E-4                  0                        0.7117737842251542
0.00495                   -8.0E-4                  0                        0.6868087682210553
0.005                     -8.0E-4                  0                        0.6596485954541342
-0.005                    -7.5E-4                  0                        0.07809972322689812
-0.00495                  -7.5E-4                  0                        0.07619199394167789
-0.0049                   -7.5E-4                  0                        0.07577710568990384
-0.00485                  -7.5E-4                  0                        0.07576402499377176
-0.0048000000000000004    -7.5E-4                  0                        0.075744594116062
-0.00475                  -7.5E-4                  0                        0.0757195984174568
-0.0047                   -7.5E-4                  0                        0.07565029083668891
-0.0046500000000000005    -7.5E-4                  0                        0.07557568164861865
-0.0046                   -7.5E-4                  0                        0.07549583667710749
-0.00455                  -7.5E-4                  0                        0.07541134984717598
-0.0045000000000000005    -7.5E-4                  0                        0.07532232986202705
-0.00445                  -7.5E-4                  0                        0.07522896476628613
-0.0044                   -7.5E-4                  0                        0.0751313859519888
-0.00435                  -7.5E-4                  0                        0.0750298097019029
-0.0043                   -7.5E-4                  0                        0.0749250670276459
-0.00425                  -7.5E-4                  0                        0.0748172261046196
-0.0042                   -7.5E-4                  0                        0.07470655475123385
-0.00415                  -7.5E-4                  0                        0.07459348057273603
-0.0041                   -7.5E-4                  0                        0.07447854781961052
-0.00405                  -7.5E-4                  0                        0.07436184054460612
-0.004                    -7.5E-4                  0                        0.07424367528412627
-0.00395                  -7.5E-4                  0                        0.07412543837030305
-0.0039                   -7.5E-4                  0                        0.07400727341257203
-0.00385                  -7.5E-4                  0                        0.07388956461422107
-0.0038                   -7.5E-4                  0                        0.0737727257530682
-0.00375                  -7.5E-4                  0                        0.07365689728626687
-0.0037                   -7.5E-4                  0                        0.07354374192126012
-0.00365                  -7.5E-4                  0                        0.07343364412907344
-0.0036                   -7.5E-4                  0                        0.07332740126165181
-0.00355                  -7.5E-4                  0                        0.07322545411616597
-0.0035                   -7.5E-4                  0                        0.07312897895334744
-0.00345                  -7.5E-4                  0                        0.07303814158615878
-0.0034000000000000002    -7.5E-4                  0                        0.07295352381376535
-0.00335                  -7.5E-4                  0                        0.07287758330699443
-0.0033                   -7.5E-4                  0                        0.07281060246720933
-0.0032500000000000003    -7.5E-4                  0                        0.07275341127269971
-0.0031999999999999997    -7.5E-4                  0                        0.07270662036385112
-0.00315                  -7.5E-4                  0                        0.07267065727389535
-0.0031000000000000003    -7.5E-4                  0                        0.0726486033005683
-0.0030499999999999998    -7.5E-4                  0                        0.07264104653826135
-0.003                    -7.5E-4                  0                        0.07264871246626878
-0.00295                  -7.5E-4                  0                        0.07267292551572548
-0.0029                   -7.5E-4                  0                        0.07271524358332028
-0.00285                  -7.5E-4                  0                        0.07277599942272692
-0.0028                   -7.5E-4                  0                        0.07285642494870796
-0.00275                  -7.5E-4                  0                        0.07296033428074741
-0.0027                   -7.5E-4                  0                        0.07308799119351664
-0.00265                  -7.5E-4                  0                        0.07324046178492516
-0.0026                   -7.5E-4                  0                        0.07341888779185209
-0.00255                  -7.5E-4                  0                        0.07362398962294978
-0.0025                   -7.5E-4                  0                        0.07385981304230509
-0.00245                  -7.5E-4                  0                        0.07412698814547197
-0.0024                   -7.5E-4                  0                        0.07442725414539103
-0.00235                  -7.5E-4                  0                        0.07476199064378969
-0.0023                   -7.5E-4                  0                        0.07513300094660547
-0.00225                  -7.5E-4                  0                        0.0755414834857791
-0.0022                   -7.5E-4                  0                        0.07598844842553
-0.00215                  -7.5E-4                  0                        0.07647842380725739
-0.0021                   -7.5E-4                  0                        0.0770119287512111
-0.00205                  -7.5E-4                  0                        0.0775907893749608
-0.002                    -7.5E-4                  0                        0.07821596556191583
-0.00195                  -7.5E-4                  0                        0.07888808124222615
-0.0018999999999999998    -7.5E-4                  0                        0.07961242510770719
-0.00185                  -7.5E-4                  0                        0.08039010578102727
-0.0018                   -7.5E-4                  0                        0.08122216708714988
-0.0017499999999999998    -7.5E-4                  0                        0.08211061494443807
-0.0017000000000000001    -7.5E-4                  0                        0.08305755521869296
-0.00165                  -7.5E-4                  0                        0.08406452206892397
-0.0015999999999999999    -7.5E-4                  0                        0.0851322714602682
-0.0015499999999999997    -7.5E-4                  0                        0.08626633200351135
-0.0015                   -7.5E-4                  0                        0.08746756424722629
-0.00145                  -7.5E-4                  0                        0.08873729258462733
-0.0013999999999999998    -7.5E-4                  0                        0.09007713200495937
-0.00135                  -7.5E-4                  0                        0.09148745808865731
-0.0013                   -7.5E-4                  0                        0.0929743680166249
-0.0012499999999999998    -7.5E-4                  0                        0.09453938536524566
-0.0012000000000000001    -7.5E-4                  0                        0.09618404449108302
-0.00115                  -7.5E-4                  0                        0.09791069785448121
-0.0010999999999999998    -7.5E-4                  0                        0.09972110892507147
-0.0010499999999999997    -7.5E-4                  0                        0.10161728808476839
-0.001                    -7.5E-4                  0                        0.1036012046467408
-9.500000000000003E-4     -7.5E-4                  0                        0.1056790517964257
-8.999999999999998E-4     -7.5E-4                  0                        0.10785143216927129
-8.500000000000001E-4     -7.5E-4                  0                        0.11012157895187288
-7.999999999999995E-4     -7.5E-4                  0                        0.11248973770878833
-7.499999999999998E-4     -7.5E-4                  0                        0.11495835939438277
-7.000000000000001E-4     -7.5E-4                  0                        0.11753523083253124
-6.499999999999995E-4     -7.5E-4                  0                        0.12022061038557896
-5.999999999999998E-4     -7.5E-4                  0                        0.12301756037034618
-5.500000000000001E-4     -7.5E-4                  0                        0.125929125194206
-4.999999999999996E-4     -7.5E-4                  0                        0.12895956633131422
-4.499999999999999E-4     -7.5E-4                  0                        0.13211011864161992
-4.000000000000002E-4     -7.5E-4                  0                        0.1353834936391976
-3.499999999999996E-4     -7.5E-4                  0                        0.13878965501439744
-2.999999999999999E-4     -7.5E-4                  0                        0.14232928913099752
-2.500000000000002E-4     -7.5E-4                  0                        0.14600462819657167
-1.9999999999999966E-4    -7.5E-4                  0                        0.14982013873358266
-1.4999999999999996E-4    -7.5E-4                  0                        0.1537767448301259
-1.0000000000000026E-4    -7.5E-4                  0                        0.1578866274225033
-4.99999999999997E-5      -7.5E-4                  0                        0.1621527998243303
0                         -7.5E-4                  0                        0.16657611749267542
5.0000000000000565E-5     -7.5E-4                  0                        0.17116362461760556
1.0000000000000026E-4     -7.5E-4                  0                        0.175922429802922
1.4999999999999996E-4     -7.5E-4                  0                        0.18085411280945687
2.0000000000000052E-4     -7.5E-4                  0                        0.18596193568985697
2.500000000000002E-4      -7.5E-4                  0                        0.1912618500340269
2.999999999999999E-4      -7.5E-4                  0                        0.19675573210975045
3.500000000000005E-4      -7.5E-4                  0                        0.20244950842659093
4.000000000000002E-4      -7.5E-4                  0                        0.20834729518592576