% Model:              fine_3d_8electrodes.mph
% Version:            COMSOL 5.3.0.260
% Date:               Apr 27 2020, 13:41
% Dimension:          3
% Nodes:              6633
% Expressions:        1
% Description:        Electric potential
% Length unit:        m
% X                       Y                        Z                        V (V)
-0.005                    -8.0E-4                  0                        0.08203602411682646
-0.00495                  -8.0E-4                  0                        0.08397282544789718
-0.0049                   -8.0E-4                  0                        0.08466010200125587
-0.00485                  -8.0E-4                  0                        0.08483154072057948
-0.0048000000000000004    -8.0E-4                  0                        0.08513367000415174
-0.00475                  -8.0E-4                  0                        0.08537983715067801
-0.0047                   -8.0E-4                  0                        0.08568613628113617
-0.0046500000000000005    -8.0E-4                  0                        0.08601374179319574
-0.0046                   -8.0E-4                  0                        0.0863508658551499
-0.00455                  -8.0E-4                  0                        0.086707120959853
-0.0045000000000000005    -8.0E-4                  0                        0.08708114462077116
-0.00445                  -8.0E-4                  0                        0.0874741566087255
-0.0044                   -8.0E-4                  0                        0.08788748347700162
-0.00435                  -8.0E-4                  0                        0.08832151560259274
-0.0043                   -8.0E-4                  0                        0.0887793141336791
-0.00425                  -8.0E-4                  0                        0.08926138207219443
-0.0042                   -8.0E-4                  0                        0.0897684912857243
-0.00415                  -8.0E-4                  0                        0.09030194903686024
-0.0041                   -8.0E-4                  0                        0.09086316288407931
-0.00405                  -8.0E-4                  0                        0.0914520332826177
-0.004                    -8.0E-4                  0                        0.09206904041131878
-0.00395                  -8.0E-4                  0                        0.09271898573265253
-0.0039                   -8.0E-4                  0                        0.09340042544667679
-0.00385                  -8.0E-4                  0                        0.09411555230028001
-0.0038                   -8.0E-4                  0                        0.09486434568773816
-0.00375                  -8.0E-4                  0                        0.0956458264193772
-0.0037                   -8.0E-4                  0                        0.09646718602156579
-0.00365                  -8.0E-4                  0                        0.09732672107975462
-0.0036                   -8.0E-4                  0                        0.09822623698865307
-0.00355                  -8.0E-4                  0                        0.09916745213705852
-0.0035                   -8.0E-4                  0                        0.10015277361805888
-0.00345                  -8.0E-4                  0                        0.1011821968281224
-0.0034000000000000002    -8.0E-4                  0                        0.10225523905519553
-0.00335                  -8.0E-4                  0                        0.10338086665402968
-0.0033                   -8.0E-4                  0                        0.10455710081157443
-0.0032500000000000003    -8.0E-4                  0                        0.10578672553865362
-0.0031999999999999997    -8.0E-4                  0                        0.10707061610800152
-0.00315                  -8.0E-4                  0                        0.10840866921786449
-0.0031000000000000003    -8.0E-4                  0                        0.1098088042693503
-0.0030499999999999998    -8.0E-4                  0                        0.11127176170921604
-0.003                    -8.0E-4                  0                        0.11280016607503673
-0.00295                  -8.0E-4                  0                        0.11439676899839848
-0.0029                   -8.0E-4                  0                        0.11606431256959282
-0.00285                  -8.0E-4                  0                        0.11780411627209644
-0.0028                   -8.0E-4                  0                        0.11961756254710257
-0.00275                  -8.0E-4                  0                        0.12151480574679366
-0.0027                   -8.0E-4                  0                        0.12349583133442454
-0.00265                  -8.0E-4                  0                        0.12556441570110918
-0.0026                   -8.0E-4                  0                        0.12772322955740534
-0.00255                  -8.0E-4                  0                        0.12997370603431074
-0.0025                   -8.0E-4                  0                        0.13232588608941026
-0.00245                  -8.0E-4                  0                        0.13478140366617097
-0.0024                   -8.0E-4                  0                        0.1373452626762671
-0.00235                  -8.0E-4                  0                        0.14002247379160832
-0.0023                   -8.0E-4                  0                        0.14281713476762467
-0.00225                  -8.0E-4                  0                        0.14573234716481523
-0.0022                   -8.0E-4                  0                        0.1487680911373781
-0.00215                  -8.0E-4                  0                        0.1519470029169645
-0.0021                   -8.0E-4                  0                        0.155264065028711
-0.00205                  -8.0E-4                  0                        0.15872815890197306
-0.002                    -8.0E-4                  0                        0.16234284453634035
-0.00195                  -8.0E-4                  0                        0.16610974449873978
-0.0018999999999999998    -8.0E-4                  0                        0.17004476828427456
-0.00185                  -8.0E-4                  0                        0.17415591701386882
-0.0018                   -8.0E-4                  0                        0.1784502178856616
-0.0017499999999999998    -8.0E-4                  0                        0.18293819106628803
-0.0017000000000000001    -8.0E-4                  0                        0.18762299729788198
-0.00165                  -8.0E-4                  0                        0.192515482520013
-0.0015999999999999999    -8.0E-4                  0                        0.19761879887584832
-0.0015499999999999997    -8.0E-4                  0                        0.20296829666676816
-0.0015                   -8.0E-4                  0                        0.20855765296596568
-0.00145                  -8.0E-4                  0                        0.21441178797738047
-0.0013999999999999998    -8.0E-4                  0                        0.22053070244885958
-0.00135                  -8.0E-4                  0                        0.22691438636596492
-0.0013                   -8.0E-4                  0                        0.23361854038627922
-0.0012499999999999998    -8.0E-4                  0                        0.24064124552730343
-0.0012000000000000001    -8.0E-4                  0                        0.24800671974562513
-0.00115                  -8.0E-4                  0                        0.2557310467657955
-0.0010999999999999998    -8.0E-4                  0                        0.2638405442899063
-0.0010499999999999997    -8.0E-4                  0                        0.27235538935006764
-0.001                    -8.0E-4                  0                        0.28128780802761155
-9.500000000000003E-4     -8.0E-4                  0                        0.290715184748846
-8.999999999999998E-4     -8.0E-4                  0                        0.3006445355459486
-8.500000000000001E-4     -8.0E-4                  0                        0.31111793221538575
-7.999999999999995E-4     -8.0E-4                  0                        0.3221713608906367
-7.499999999999998E-4     -8.0E-4                  0                        0.3338241348093005
-7.000000000000001E-4     -8.0E-4                  0                        0.34619633253075865
-6.499999999999995E-4     -8.0E-4                  0                        0.3593080289659211
-5.999999999999998E-4     -8.0E-4                  0                        0.37323374873965337
-5.500000000000001E-4     -8.0E-4                  0                        0.3880463171557996
-4.999999999999996E-4     -8.0E-4                  0                        0.40383530616834534
-4.499999999999999E-4     -8.0E-4                  0                        0.42068367331786644
-4.000000000000002E-4     -8.0E-4                  0                        0.4386623184287109
-3.499999999999996E-4     -8.0E-4                  0                        0.4580426512374688
-2.999999999999999E-4     -8.0E-4                  0                        0.47886249556358906
-2.500000000000002E-4     -8.0E-4                  0                        0.5013786046760429
-1.9999999999999966E-4    -8.0E-4                  0                        0.5257308213621018
-1.4999999999999996E-4    -8.0E-4                  0                        0.5520075900262806
-1.0000000000000026E-4    -8.0E-4                  0                        0.5807486393554598
-4.99999999999997E-5      -8.0E-4                  0                        0.6121317055643929
0                         -8.0E-4                  0                        0.6466008074756372
5.0000000000000565E-5     -8.0E-4                  0                        0.6845748369324806
1.0000000000000026E-4     -8.0E-4                  0                        0.7266414066962212
1.4999999999999996E-4     -8.0E-4                  0                        0.7735402500793646
2.0000000000000052E-4     -8.0E-4                  0                        0.825546489362988
2.500000000000002E-4      -8.0E-4                  0                        0.885022807322359
2.999999999999999E-4      -8.0E-4                  0                        0.9516799498782911
3.500000000000005E-4      -8.0E-4                  0                        1.0284436594547979
4.000000000000002E-4      -8.0E-4                  0                        1.1182914074236838
4.499999999999999E-4      -8.0E-4                  0                        1.222785730547093
5.000000000000004E-4      -8.0E-4                  0                        1.3504053102454212
5.500000000000001E-4      -8.0E-4                  0                        1.502085612128663
5.999999999999998E-4      -8.0E-4                  0                        1.6947439179111081
6.500000000000004E-4      -8.0E-4                  0                        1.8998815367818012
7.000000000000001E-4      -8.0E-4                  0                        1.9863826549866785
7.499999999999998E-4      -8.0E-4                  0                        2.0387030458123463
8.000000000000004E-4      -8.0E-4                  0                        2.05618894329596
8.500000000000001E-4      -8.0E-4                  0                        2.0696474914223817
8.999999999999998E-4      -8.0E-4                  0                        2.0718934440967063
9.500000000000003E-4      -8.0E-4                  0                        2.068315027448912
0.001                     -8.0E-4                  0                        2.0602012813645043
0.0010500000000000006     -8.0E-4                  0                        2.0389710625542765
0.0011000000000000003     -8.0E-4                  0                        1.9968817017916454
0.00115                   -8.0E-4                  0                        1.9354680235724429
0.0012000000000000005     -8.0E-4                  0                        1.7056558952291658
0.0012500000000000002     -8.0E-4                  0                        1.517207788194152
0.0013                    -8.0E-4                  0                        1.3598685899682281
0.0013500000000000005     -8.0E-4                  0                        1.2349787100837293
0.0014000000000000002     -8.0E-4                  0                        1.1300435176509327
0.00145                   -8.0E-4                  0                        1.0412447297179535
0.0015000000000000005     -8.0E-4                  0                        0.965641172402722
0.0015500000000000002     -8.0E-4                  0                        0.9001333211088891
0.0015999999999999999     -8.0E-4                  0                        0.8426356729055254
0.0016500000000000004     -8.0E-4                  0                        0.7922183628131665
0.0017000000000000001     -8.0E-4                  0                        0.7468959132401378
0.0017499999999999998     -8.0E-4                  0                        0.7063183227350504
0.0018000000000000004     -8.0E-4                  0                        0.6697770055957495
0.00185                   -8.0E-4                  0                        0.6367255799435023
0.0019000000000000006     -8.0E-4                  0                        0.6068847684373114
0.0019500000000000003     -8.0E-4                  0                        0.5796264103626476
0.002                     -8.0E-4                  0                        0.5547770444235118
0.0020500000000000006     -8.0E-4                  0                        0.5318548726198379
0.0021000000000000003     -8.0E-4                  0                        0.5107718364324867
0.00215                   -8.0E-4                  0                        0.4912781618216086
0.0022000000000000006     -8.0E-4                  0                        0.47326110715308495
0.0022500000000000003     -8.0E-4                  0                        0.4566203415107735
0.0023                    -8.0E-4                  0                        0.44108573030577364
0.0023500000000000005     -8.0E-4                  0                        0.4266154403678887
0.0024000000000000002     -8.0E-4                  0                        0.4130867022668359
0.00245                   -8.0E-4                  0                        0.4004350457969018
0.0025000000000000005     -8.0E-4                  0                        0.3885828174072399
0.00255                   -8.0E-4                  0                        0.3774542958648049
0.0026                    -8.0E-4                  0                        0.3670125689619967
0.0026500000000000004     -8.0E-4                  0                        0.35715889280583357
0.0027                    -8.0E-4                  0                        0.3478675706617936
0.00275                   -8.0E-4                  0                        0.33909724979191136
0.0028000000000000004     -8.0E-4                  0                        0.33080862972905456
0.002850000000000001      -8.0E-4                  0                        0.32298097016749777
0.0029000000000000007     -8.0E-4                  0                        0.3155529679725061
0.0029500000000000004     -8.0E-4                  0                        0.3085117820578047
0.003                     -8.0E-4                  0                        0.3018323504219309
0.0030499999999999998     -8.0E-4                  0                        0.2954890268395032
0.0030999999999999995     -8.0E-4                  0                        0.2894639826811055
0.003150000000000001      -8.0E-4                  0                        0.28373584981775307
0.0032000000000000006     -8.0E-4                  0                        0.2782892266418007
0.0032500000000000003     -8.0E-4                  0                        0.2731018586671703
0.0033                    -8.0E-4                  0                        0.2681596883195534
0.0033499999999999997     -8.0E-4                  0                        0.26345302125717096
0.003400000000000001      -8.0E-4                  0                        0.2589683538192652
0.003450000000000001      -8.0E-4                  0                        0.25469581577983064
0.0035000000000000005     -8.0E-4                  0                        0.2506169540756862
0.00355                   -8.0E-4                  0                        0.2467252269859185
0.0036                    -8.0E-4                  0                        0.24301363206029272
0.0036499999999999996     -8.0E-4                  0                        0.23947374873199784
0.003700000000000001      -8.0E-4                  0                        0.23609679730272753
0.0037500000000000007     -8.0E-4                  0                        0.23287611638518954
0.0038000000000000004     -8.0E-4                  0                        0.22980555101128053
0.00385                   -8.0E-4                  0                        0.2268775590091174
0.0039                    -8.0E-4                  0                        0.22408317780236897
0.0039499999999999995     -8.0E-4                  0                        0.221420189452186
0.004000000000000001      -8.0E-4                  0                        0.21888411035761682
0.004050000000000001      -8.0E-4                  0                        0.21646473350181206
0.0041                    -8.0E-4                  0                        0.21416457607570707
0.00415                   -8.0E-4                  0                        0.21197233411107932
0.0042                    -8.0E-4                  0                        0.20988409031409364
0.004250000000000001      -8.0E-4                  0                        0.2079007973868008
0.004300000000000001      -8.0E-4                  0                        0.20601218153692402
0.004350000000000001      -8.0E-4                  0                        0.20421912077730986
0.0044                    -8.0E-4                  0                        0.20250595592405227
0.00445                   -8.0E-4                  0                        0.20088477560654994
0.0045                    -8.0E-4                  0                        0.19933112323538058
0.004550000000000001      -8.0E-4                  0                        0.19784683306761602
0.004600000000000001      -8.0E-4                  0                        0.19643264662875304
0.0046500000000000005     -8.0E-4                  0                        0.19506174156611578
0.0047                    -8.0E-4                  0                        0.19372969329770212
0.00475                   -8.0E-4                  0                        0.1924320136257616
0.0048                    -8.0E-4                  0                        0.19122041452457175
0.004850000000000001      -8.0E-4                  0                        0.18976303049230467
0.004900000000000001      -8.0E-4                  0                        0.18652725374989376
0.00495                   -8.0E-4                  0                        0.18144399050248367
0.005                     -8.0E-4                  0                        0.17587522476406048
-0.005                    -7.5E-4                  0                        0.08391982204847497
-0.00495                  -7.5E-4                  0                        0.08647652406879341
-0.0049                   -7.5E-4                  0                        0.08704275961826083
-0.00485                  -7.5E-4                  0                        0.08709340121763909
-0.0048000000000000004    -7.5E-4                  0                        0.08716915789584388
-0.00475                  -7.5E-4                  0                        0.08726727333573735
-0.0047                   -7.5E-4                  0                        0.08754064339186206
-0.0046500000000000005    -7.5E-4                  0                        0.08783654697400678
-0.0046                   -7.5E-4                  0                        0.08815514116681974
-0.00455                  -7.5E-4                  0                        0.08849775824855534
-0.0045000000000000005    -7.5E-4                  0                        0.088864635629972
-0.00445                  -7.5E-4                  0                        0.08925617685978095
-0.0044                   -7.5E-4                  0                        0.08967268582438663
-0.00435                  -7.5E-4                  0                        0.0901146510094611
-0.0043                   -7.5E-4                  0                        0.09058392714029043
-0.00425                  -7.5E-4                  0                        0.09108066120619193
-0.0042                   -7.5E-4                  0                        0.09160543608429428
-0.00415                  -7.5E-4                  0                        0.0921592144724531
-0.0041                   -7.5E-4                  0                        0.09274317260399989
-0.00405                  -7.5E-4                  0                        0.09335749860503734
-0.004                    -7.5E-4                  0                        0.09400288305558625
-0.00395                  -7.5E-4                  0                        0.0946823722763291
-0.0039                   -7.5E-4                  0                        0.0953962804599064
-0.00385                  -7.5E-4                  0                        0.09614543680682472
-0.0038                   -7.5E-4                  0                        0.09693076528335835
-0.00375                  -7.5E-4                  0                        0.09775255878416274
-0.0037                   -7.5E-4                  0                        0.09861441727339973
-0.00365                  -7.5E-4                  0                        0.0995171823095201
-0.0036                   -7.5E-4                  0                        0.10046264234288972
-0.00355                  -7.5E-4                  0                        0.10145173648307274
-0.0035                   -7.5E-4                  0                        0.10248699022981732
-0.00345                  -7.5E-4                  0                        0.10356883017197022
-0.0034000000000000002    -7.5E-4                  0                        0.10469853014472047
-0.00335                  -7.5E-4                  0                        0.10588143510717729
-0.0033                   -7.5E-4                  0                        0.107118160359819
-0.0032500000000000003    -7.5E-4                  0                        0.10841063156081347
-0.0031999999999999997    -7.5E-4                  0                        0.10976021374643385
-0.00315                  -7.5E-4                  0                        0.11116787630129936
-0.0031000000000000003    -7.5E-4                  0                        0.11264054605459461
-0.0030499999999999998    -7.5E-4                  0                        0.11417953765825026
-0.003                    -7.5E-4                  0                        0.11578648810624319
-0.00295                  -7.5E-4                  0                        0.11746454523187327
-0.0029                   -7.5E-4                  0                        0.1192174603891874
-0.00285                  -7.5E-4                  0                        0.12104598260933057
-0.0028                   -7.5E-4                  0                        0.12295305950703908
-0.00275                  -7.5E-4                  0                        0.12494786949988962
-0.0027                   -7.5E-4                  0                        0.1270310595850701
-0.00265                  -7.5E-4                  0                        0.12920561549587994
-0.0026                   -7.5E-4                  0                        0.13147455897742155
-0.00255                  -7.5E-4                  0                        0.13383958815342908
-0.0025                   -7.5E-4                  0                        0.1363112773590127
-0.00245                  -7.5E-4                  0                        0.13889143915588073
-0.0024                   -7.5E-4                  0                        0.14158547370629562
-0.00235                  -7.5E-4                  0                        0.14439705300908415
-0.0023                   -7.5E-4                  0                        0.14733146360349916
-0.00225                  -7.5E-4                  0                        0.1503928518739834
-0.0022                   -7.5E-4                  0                        0.15358392443315605
-0.00215                  -7.5E-4                  0                        0.15691908698439497
-0.0021                   -7.5E-4                  0                        0.16040030933272312
-0.00205                  -7.5E-4                  0                        0.16403486217839594
-0.002                    -7.5E-4                  0                        0.16782614267162252
-0.00195                  -7.5E-4                  0                        0.17177655477791973
-0.0018999999999999998    -7.5E-4                  0                        0.17590585753983767
-0.00185                  -7.5E-4                  0                        0.18021812750545224
-0.0018                   -7.5E-4                  0                        0.18471915786529583
-0.0017499999999999998    -7.5E-4                  0                        0.1894182762272091
-0.0017000000000000001    -7.5E-4                  0                        0.19432640979339832
-0.00165                  -7.5E-4                  0                        0.199451261467075
-0.0015999999999999999    -7.5E-4                  0                        0.2047959077113113
-0.0015499999999999997    -7.5E-4                  0                        0.21038832953714384
-0.0015                   -7.5E-4                  0                        0.21623420522414544
-0.00145                  -7.5E-4                  0                        0.2223520319019393
-0.0013999999999999998    -7.5E-4                  0                        0.22874643458619448
-0.00135                  -7.5E-4                  0                        0.2354183630849275
-0.0013                   -7.5E-4                  0                        0.24241007389876995
-0.0012499999999999998    -7.5E-4                  0                        0.24973347282577646
-0.0012000000000000001    -7.5E-4                  0                        0.2574162478855242
-0.00115                  -7.5E-4                  0                        0.26547210417241063
-0.0010999999999999998    -7.5E-4                  0                        0.2739061810448931
-0.0010499999999999997    -7.5E-4                  0                        0.2827563165407244
-0.001                    -7.5E-4                  0                        0.2920465728984737
-9.500000000000003E-4     -7.5E-4                  0                        0.30184012019977574
-8.999999999999998E-4     -7.5E-4                  0                        0.3121407508530173
-8.500000000000001E-4     -7.5E-4                  0                        0.3229995407315235
-7.999999999999995E-4     -7.5E-4                  0                        0.3344376255471606
-7.499999999999998E-4     -7.5E-4                  0                        0.3464975975462929
-7.000000000000001E-4     -7.5E-4                  0                        0.35929772756220885
-6.499999999999995E-4     -7.5E-4                  0                        0.37283712866016244
-5.999999999999998E-4     -7.5E-4                  0                        0.3871884774570622
-5.500000000000001E-4     -7.5E-4                  0                        0.4024432692857367
-4.999999999999996E-4     -7.5E-4                  0                        0.4186888681693007
-4.499999999999999E-4     -7.5E-4                  0                        0.4359890660903766
-4.000000000000002E-4     -7.5E-4                  0                        0.4544409972129517
-3.499999999999996E-4     -7.5E-4                  0                        0.47431237263878134
-2.999999999999999E-4     -7.5E-4                  0                        0.4956240832036029
-2.500000000000002E-4     -7.5E-4                  0                        0.5186532410737814
-1.9999999999999966E-4    -7.5E-4                  0                        0.5435398344415696
-1.4999999999999996E-4    -7.5E-4                  0                        0.5703250265622267
-1.0000000000000026E-4    -7.5E-4                  0                        0.5996635405599827
-4.99999999999997E-5      -7.5E-4                  0                        0.631724968557873
0                         -7.5E-4                  0                        0.6666650537878596
5.0000000000000565E-5     -7.5E-4                  0                        0.7051842241926368
1.0000000000000026E-4     -7.5E-4                  0                        0.7480539227715483
1.4999999999999996E-4     -7.5E-4                  0                        0.7957102933003602
2.0000000000000052E-4     -7.5E-4                  0                        0.8484587765883165
2.500000000000002E-4      -7.5E-4                  0                        0.9086989773492684
2.999999999999999E-4      -7.5E-4                  0                        0.9767809797891507
3.500000000000005E-4      -7.5E-4                  0                        1.0548490487275468
4.000000000000002E-4      -7.5E-4                  0                        1.1455927807610513