% Model:              fine_3d_8electrodes.mph
% Version:            COMSOL 5.3.0.260
% Date:               Apr 27 2020, 13:30
% Dimension:          3
% Nodes:              6633
% Expressions:        1
% Description:        Electric potential
% Length unit:        m
% X                       Y                        Z                        V (V)
-0.005                    -8.0E-4                  0                        0.6695222222411019
-0.00495                  -8.0E-4                  0                        0.7099691626891641
-0.0049                   -8.0E-4                  0                        0.7248957714254862
-0.00485                  -8.0E-4                  0                        0.7301150755002597
-0.0048000000000000004    -8.0E-4                  0                        0.7386654087238834
-0.00475                  -8.0E-4                  0                        0.7466331513584165
-0.0047                   -8.0E-4                  0                        0.7577319305739929
-0.0046500000000000005    -8.0E-4                  0                        0.7701304751909724
-0.0046                   -8.0E-4                  0                        0.7836696151961718
-0.00455                  -8.0E-4                  0                        0.7985699330055429
-0.0045000000000000005    -8.0E-4                  0                        0.8148535416982021
-0.00445                  -8.0E-4                  0                        0.8327338428752166
-0.0044                   -8.0E-4                  0                        0.8523627983664286
-0.00435                  -8.0E-4                  0                        0.8738621856718221
-0.0043                   -8.0E-4                  0                        0.8978287098641505
-0.00425                  -8.0E-4                  0                        0.9243376107002194
-0.0042                   -8.0E-4                  0                        0.9537856956947416
-0.00415                  -8.0E-4                  0                        0.986668395183174
-0.0041                   -8.0E-4                  0                        1.0236486245388527
-0.00405                  -8.0E-4                  0                        1.0652162966513081
-0.004                    -8.0E-4                  0                        1.1119620174301292
-0.00395                  -8.0E-4                  0                        1.1659185767876212
-0.0039                   -8.0E-4                  0                        1.2272555009094723
-0.00385                  -8.0E-4                  0                        1.2990107451508957
-0.0038                   -8.0E-4                  0                        1.3832040015607556
-0.00375                  -8.0E-4                  0                        1.4794944053736736
-0.0037                   -8.0E-4                  0                        1.6059284754335956
-0.00365                  -8.0E-4                  0                        1.7546351254363648
-0.0036                   -8.0E-4                  0                        1.932478590153764
-0.00355                  -8.0E-4                  0                        2.1412521444606463
-0.0035                   -8.0E-4                  0                        2.2192702289530346
-0.00345                  -8.0E-4                  0                        2.266890324553288
-0.0034000000000000002    -8.0E-4                  0                        2.282998401645652
-0.00335                  -8.0E-4                  0                        2.295384841672591
-0.0033                   -8.0E-4                  0                        2.296616432594837
-0.0032500000000000003    -8.0E-4                  0                        2.2923902052488434
-0.0031999999999999997    -8.0E-4                  0                        2.283502617266796
-0.00315                  -8.0E-4                  0                        2.2613271498357843
-0.0031000000000000003    -8.0E-4                  0                        2.2174666965723064
-0.0030499999999999998    -8.0E-4                  0                        2.1518593664519807
-0.003                    -8.0E-4                  0                        1.9136615042519514
-0.00295                  -8.0E-4                  0                        1.7186054524697358
-0.0029                   -8.0E-4                  0                        1.555847900274994
-0.00285                  -8.0E-4                  0                        1.4231960265955346
-0.0028                   -8.0E-4                  0                        1.312326864710307
-0.00275                  -8.0E-4                  0                        1.2173959752222763
-0.0027                   -8.0E-4                  0                        1.1353130233730762
-0.00265                  -8.0E-4                  0                        1.0638904160072795
-0.0026                   -8.0E-4                  0                        1.0004636163257887
-0.00255                  -8.0E-4                  0                        0.9445433443043945
-0.0025                   -8.0E-4                  0                        0.8937847097077648
-0.00245                  -8.0E-4                  0                        0.8478846023162226
-0.0024                   -8.0E-4                  0                        0.8059892145847761
-0.00235                  -8.0E-4                  0                        0.7676828770259617
-0.0023                   -8.0E-4                  0                        0.7325505269365189
-0.00225                  -8.0E-4                  0                        0.7001034104694936
-0.0022                   -8.0E-4                  0                        0.6701572673926602
-0.00215                  -8.0E-4                  0                        0.6422130632752062
-0.0021                   -8.0E-4                  0                        0.6161477472415647
-0.00205                  -8.0E-4                  0                        0.5917516530714487
-0.002                    -8.0E-4                  0                        0.5688619418927741
-0.00195                  -8.0E-4                  0                        0.5474012047969282
-0.0018999999999999998    -8.0E-4                  0                        0.5270950684356779
-0.00185                  -8.0E-4                  0                        0.5079076262940811
-0.0018                   -8.0E-4                  0                        0.48974564068319154
-0.0017499999999999998    -8.0E-4                  0                        0.47251284332860144
-0.0017000000000000001    -8.0E-4                  0                        0.45613850878786544
-0.00165                  -8.0E-4                  0                        0.44054902096845594
-0.0015999999999999999    -8.0E-4                  0                        0.4257065871428982
-0.0015499999999999997    -8.0E-4                  0                        0.41151806551514497
-0.0015                   -8.0E-4                  0                        0.3979576304994012
-0.00145                  -8.0E-4                  0                        0.38498230704544295
-0.0013999999999999998    -8.0E-4                  0                        0.37255752018419275
-0.00135                  -8.0E-4                  0                        0.36065976284743356
-0.0013                   -8.0E-4                  0                        0.34924069450917294
-0.0012499999999999998    -8.0E-4                  0                        0.33827845105700355
-0.0012000000000000001    -8.0E-4                  0                        0.32774027102468867
-0.00115                  -8.0E-4                  0                        0.31761237931260994
-0.0010999999999999998    -8.0E-4                  0                        0.3078771189096941
-0.0010499999999999997    -8.0E-4                  0                        0.2985074254789998
-0.001                    -8.0E-4                  0                        0.2894922623965235
-9.500000000000003E-4     -8.0E-4                  0                        0.2808022043583926
-8.999999999999998E-4     -8.0E-4                  0                        0.2724298155611436
-8.500000000000001E-4     -8.0E-4                  0                        0.26436075537252574
-7.999999999999995E-4     -8.0E-4                  0                        0.2565847179317192
-7.499999999999998E-4     -8.0E-4                  0                        0.24909570455829355
-7.000000000000001E-4     -8.0E-4                  0                        0.24186606416459044
-6.499999999999995E-4     -8.0E-4                  0                        0.2348920305630864
-5.999999999999998E-4     -8.0E-4                  0                        0.22816470780820836
-5.500000000000001E-4     -8.0E-4                  0                        0.2216761013339771
-4.999999999999996E-4     -8.0E-4                  0                        0.2154167224710005
-4.499999999999999E-4     -8.0E-4                  0                        0.20937771111841696
-4.000000000000002E-4     -8.0E-4                  0                        0.20354900268753087
-3.499999999999996E-4     -8.0E-4                  0                        0.19792654566639484
-2.999999999999999E-4     -8.0E-4                  0                        0.1924982243798261
-2.500000000000002E-4     -8.0E-4                  0                        0.18726384582658195
-1.9999999999999966E-4    -8.0E-4                  0                        0.18221540136551023
-1.4999999999999996E-4    -8.0E-4                  0                        0.17734628286789958
-1.0000000000000026E-4    -8.0E-4                  0                        0.17264423639715631
-4.99999999999997E-5      -8.0E-4                  0                        0.16810925191618087
0                         -8.0E-4                  0                        0.1637369480416547
5.0000000000000565E-5     -8.0E-4                  0                        0.15952303230392237
1.0000000000000026E-4     -8.0E-4                  0                        0.15545974129844847
1.4999999999999996E-4     -8.0E-4                  0                        0.15154425084027548
2.0000000000000052E-4     -8.0E-4                  0                        0.14776979573581833
2.500000000000002E-4      -8.0E-4                  0                        0.1441365694851344
2.999999999999999E-4      -8.0E-4                  0                        0.140634130547181
3.500000000000005E-4      -8.0E-4                  0                        0.13726369852704487
4.000000000000002E-4      -8.0E-4                  0                        0.1340199289588126
4.499999999999999E-4      -8.0E-4                  0                        0.13089897043701906
5.000000000000004E-4      -8.0E-4                  0                        0.12789638708383572
5.500000000000001E-4      -8.0E-4                  0                        0.12500930044527098
5.999999999999998E-4      -8.0E-4                  0                        0.12223444393314734
6.500000000000004E-4      -8.0E-4                  0                        0.11956935502119895
7.000000000000001E-4      -8.0E-4                  0                        0.11701124625583233
7.499999999999998E-4      -8.0E-4                  0                        0.11455703869718144
8.000000000000004E-4      -8.0E-4                  0                        0.11220126166544878
8.500000000000001E-4      -8.0E-4                  0                        0.10994486940463453
8.999999999999998E-4      -8.0E-4                  0                        0.10778149211975319
9.500000000000003E-4      -8.0E-4                  0                        0.10571119467718436
0.001                     -8.0E-4                  0                        0.1037313793009599
0.0010500000000000006     -8.0E-4                  0                        0.10183872954057903
0.0011000000000000003     -8.0E-4                  0                        0.10002987972643512
0.00115                   -8.0E-4                  0                        0.09830311561852062
0.0012000000000000005     -8.0E-4                  0                        0.09665610373822542
0.0012500000000000002     -8.0E-4                  0                        0.09508859329674359
0.0013                    -8.0E-4                  0                        0.09359626057813765
0.0013500000000000005     -8.0E-4                  0                        0.09217763255055406
0.0014000000000000002     -8.0E-4                  0                        0.09082927778973011
0.00145                   -8.0E-4                  0                        0.08955154416902787
0.0015000000000000005     -8.0E-4                  0                        0.0883396696980303
0.0015500000000000002     -8.0E-4                  0                        0.0871937020651335
0.0015999999999999999     -8.0E-4                  0                        0.08611146090199086
0.0016500000000000004     -8.0E-4                  0                        0.08509084549229146
0.0017000000000000001     -8.0E-4                  0                        0.08412886190370214
0.0017499999999999998     -8.0E-4                  0                        0.08322370392610315
0.0018000000000000004     -8.0E-4                  0                        0.08237398465369454
0.00185                   -8.0E-4                  0                        0.08157852156509333
0.0019000000000000006     -8.0E-4                  0                        0.08083539167847242
0.0019500000000000003     -8.0E-4                  0                        0.08014233361016646
0.002                     -8.0E-4                  0                        0.07949776675197814
0.0020500000000000006     -8.0E-4                  0                        0.07889939457425378
0.0021000000000000003     -8.0E-4                  0                        0.07834482435985442
0.00215                   -8.0E-4                  0                        0.07783340215877979
0.0022000000000000006     -8.0E-4                  0                        0.07736390032168997
0.0022500000000000003     -8.0E-4                  0                        0.07693371587415779
0.0023                    -8.0E-4                  0                        0.07654151092106926
0.0023500000000000005     -8.0E-4                  0                        0.07618475760833561
0.0024000000000000002     -8.0E-4                  0                        0.07586232669835936
0.00245                   -8.0E-4                  0                        0.07557296901783521
0.0025000000000000005     -8.0E-4                  0                        0.07531480195796364
0.00255                   -8.0E-4                  0                        0.07508671065314754
0.0026                    -8.0E-4                  0                        0.07488720866099782
0.0026500000000000004     -8.0E-4                  0                        0.07471400129016051
0.0027                    -8.0E-4                  0                        0.07456523837825907
0.00275                   -8.0E-4                  0                        0.07444038844999491
0.0028000000000000004     -8.0E-4                  0                        0.0743381982863813
0.002850000000000001      -8.0E-4                  0                        0.07425738209675872
0.0029000000000000007     -8.0E-4                  0                        0.07419554373247425
0.0029500000000000004     -8.0E-4                  0                        0.0741519074846241
0.003                     -8.0E-4                  0                        0.07412516557664726
0.0030499999999999998     -8.0E-4                  0                        0.07411424343179226
0.0030999999999999995     -8.0E-4                  0                        0.0741179988040081
0.003150000000000001      -8.0E-4                  0                        0.07413560362360967
0.0032000000000000006     -8.0E-4                  0                        0.07416598827858885
0.0032500000000000003     -8.0E-4                  0                        0.07420719993376823
0.0033                    -8.0E-4                  0                        0.07425844894477848
0.0033499999999999997     -8.0E-4                  0                        0.07431910231159713
0.003400000000000001      -8.0E-4                  0                        0.07438852753606025
0.003450000000000001      -8.0E-4                  0                        0.07446596235596063
0.0035000000000000005     -8.0E-4                  0                        0.07454955018515405
0.00355                   -8.0E-4                  0                        0.07463882035061252
0.0036                    -8.0E-4                  0                        0.07473325923729045
0.0036499999999999996     -8.0E-4                  0                        0.07483218217427644
0.003700000000000001      -8.0E-4                  0                        0.07493475358371471
0.0037500000000000007     -8.0E-4                  0                        0.07504056208601988
0.0038000000000000004     -8.0E-4                  0                        0.07514926124474665
0.00385                   -8.0E-4                  0                        0.07525918540230951
0.0039                    -8.0E-4                  0                        0.07537052192420123
0.0039499999999999995     -8.0E-4                  0                        0.07548270019610658
0.004000000000000001      -8.0E-4                  0                        0.07559534615050284
0.004050000000000001      -8.0E-4                  0                        0.07570882090069082
0.0041                    -8.0E-4                  0                        0.07582103119418064
0.00415                   -8.0E-4                  0                        0.07593280152767753
0.0042                    -8.0E-4                  0                        0.07604385899792657
0.004250000000000001      -8.0E-4                  0                        0.07615351805605236
0.004300000000000001      -8.0E-4                  0                        0.07626231738279736
0.004350000000000001      -8.0E-4                  0                        0.07636955021979722
0.0044                    -8.0E-4                  0                        0.07647706542366808
0.00445                   -8.0E-4                  0                        0.07658184430901556
0.0045                    -8.0E-4                  0                        0.07668738321530853
0.004550000000000001      -8.0E-4                  0                        0.07679350901209309
0.004600000000000001      -8.0E-4                  0                        0.0768996299182295
0.0046500000000000005     -8.0E-4                  0                        0.07701134305425072
0.0047                    -8.0E-4                  0                        0.07713105127159701
0.00475                   -8.0E-4                  0                        0.07725917274229484
0.0048                    -8.0E-4                  0                        0.07740804551113276
0.004850000000000001      -8.0E-4                  0                        0.07761268681643661
0.004900000000000001      -8.0E-4                  0                        0.07813483659819243
0.00495                   -8.0E-4                  0                        0.078978754485654
0.005                     -8.0E-4                  0                        0.07990578568936732
-0.005                    -7.5E-4                  0                        0.7073745248389566
-0.00495                  -7.5E-4                  0                        0.7598916070414679
-0.0049                   -7.5E-4                  0                        0.7718310958267556
-0.00485                  -7.5E-4                  0                        0.7737449513989209
-0.0048000000000000004    -7.5E-4                  0                        0.7767763283815454
-0.00475                  -7.5E-4                  0                        0.7807283097111499
-0.0047                   -7.5E-4                  0                        0.7918658645909903
-0.0046500000000000005    -7.5E-4                  0                        0.8040724404841768
-0.0046                   -7.5E-4                  0                        0.8173745820364888
-0.00455                  -7.5E-4                  0                        0.832064376001749
-0.0045000000000000005    -7.5E-4                  0                        0.8481964216069133
-0.00445                  -7.5E-4                  0                        0.8659712411394143
-0.0044                   -7.5E-4                  0                        0.8855312511769221
-0.00435                  -7.5E-4                  0                        0.9071216760205107
-0.0043                   -7.5E-4                  0                        0.9313288072003862
-0.00425                  -7.5E-4                  0                        0.9581176850715113
-0.0042                   -7.5E-4                  0                        0.9875723966516161
-0.00415                  -7.5E-4                  0                        1.0205881178728875
-0.0041                   -7.5E-4                  0                        1.0578827202590042
-0.00405                  -7.5E-4                  0                        1.099711682964092
-0.004                    -7.5E-4                  0                        1.1469902639357639
-0.00395                  -7.5E-4                  0                        1.2016267046843039
-0.0039                   -7.5E-4                  0                        1.2636070513131936
-0.00385                  -7.5E-4                  0                        1.3366280203590464
-0.0038                   -7.5E-4                  0                        1.4222211635894175
-0.00375                  -7.5E-4                  0                        1.5210817871349585
-0.0037                   -7.5E-4                  0                        1.6522143093915769
-0.00365                  -7.5E-4                  0                        1.8207543885140123
-0.0036                   -7.5E-4                  0                        2.0954150333558124
-0.00355                  -7.5E-4                  0                        2.5060361480958586
-0.0035                   -7.5E-4                  0                        2.5060361480958413
-0.00345                  -7.5E-4                  0                        2.5060361480958444
-0.0034000000000000002    -7.5E-4                  0                        2.5060361480958435
-0.00335                  -7.5E-4                  0                        2.506036148095845
-0.0033                   -7.5E-4                  0                        2.506036148095847
-0.0032500000000000003    -7.5E-4                  0                        2.506036148095845
-0.0031999999999999997    -7.5E-4                  0                        2.506036148095844
-0.00315                  -7.5E-4                  0                        2.5060361480958453
-0.0031000000000000003    -7.5E-4                  0                        2.506036148095845
-0.0030499999999999998    -7.5E-4                  0                        2.5060361480958395
-0.003                    -7.5E-4                  0                        2.0863825019727362
-0.00295                  -7.5E-4                  0                        1.7890428810276608
-0.0029                   -7.5E-4                  0                        1.6077665905862406
-0.00285                  -7.5E-4                  0                        1.4596732585015417
-0.0028                   -7.5E-4                  0                        1.3457215001881866
-0.00275                  -7.5E-4                  0                        1.2492796754637177
-0.0027                   -7.5E-4                  0                        1.1663096861811364
-0.00265                  -7.5E-4                  0                        1.0940407077965053
-0.0026                   -7.5E-4                  0                        1.0293897488423087
-0.00255                  -7.5E-4                  0                        0.9722399725858093
-0.0025                   -7.5E-4                  0                        0.9206589507277427
-0.00245                  -7.5E-4                  0                        0.8741419527314966
-0.0024                   -7.5E-4                  0                        0.8313846234297286
-0.00235                  -7.5E-4                  0                        0.7921524805613693
-0.0023                   -7.5E-4                  0                        0.7562405448522379
-0.00225                  -7.5E-4                  0                        0.723003877647607
-0.0022                   -7.5E-4                  0                        0.692361881805345
-0.00215                  -7.5E-4                  0                        0.6637299962138542
-0.0021                   -7.5E-4                  0                        0.6370043052966029
-0.00205                  -7.5E-4                  0                        0.6118957662234518
-0.002                    -7.5E-4                  0                        0.588329010133379
-0.00195                  -7.5E-4                  0                        0.5662336798474116
-0.0018999999999999998    -7.5E-4                  0                        0.5452988319578325
-0.00185                  -7.5E-4                  0                        0.5254894792309883
-0.0018                   -7.5E-4                  0                        0.5067269128728916
-0.0017499999999999998    -7.5E-4                  0                        0.4888984425065291
-0.0017000000000000001    -7.5E-4                  0                        0.47192892162081584
-0.00165                  -7.5E-4                  0                        0.45575461518746135
-0.0015999999999999999    -7.5E-4                  0                        0.4403608598914716
-0.0015499999999999997    -7.5E-4                  0                        0.42562857435236445
-0.0015                   -7.5E-4                  0                        0.41153541145104394
-0.00145                  -7.5E-4                  0                        0.3980220566721398
-0.0013999999999999998    -7.5E-4                  0                        0.3850738114532787
-0.00135                  -7.5E-4                  0                        0.3726879869603703
-0.0013                   -7.5E-4                  0                        0.36078731035418365
-0.0012499999999999998    -7.5E-4                  0                        0.3493507854217707
-0.0012000000000000001    -7.5E-4                  0                        0.33835001068622733
-0.00115                  -7.5E-4                  0                        0.32776533467212504
-0.0010999999999999998    -7.5E-4                  0                        0.31759327351228195
-0.0010499999999999997    -7.5E-4                  0                        0.30780206775804514
-0.001                    -7.5E-4                  0                        0.29837812542811204
-9.500000000000003E-4     -7.5E-4                  0                        0.28928638377150395
-8.999999999999998E-4     -7.5E-4                  0                        0.28052508039000623
-8.500000000000001E-4     -7.5E-4                  0                        0.2720773674698524
-7.999999999999995E-4     -7.5E-4                  0                        0.2639367014858402
-7.499999999999998E-4     -7.5E-4                  0                        0.2560926820869443
-7.000000000000001E-4     -7.5E-4                  0                        0.24851630824844617
-6.499999999999995E-4     -7.5E-4                  0                        0.24120775833074792
-5.999999999999998E-4     -7.5E-4                  0                        0.23415814657524142
-5.500000000000001E-4     -7.5E-4                  0                        0.22735551077222696
-4.999999999999996E-4     -7.5E-4                  0                        0.22079000657262451
-4.499999999999999E-4     -7.5E-4                  0                        0.21445692599555294
-4.000000000000002E-4     -7.5E-4                  0                        0.20834996774399192
-3.499999999999996E-4     -7.5E-4                  0                        0.20244950323407643
-2.999999999999999E-4     -7.5E-4                  0                        0.1967545977416526
-2.500000000000002E-4     -7.5E-4                  0                        0.19126128557102667
-1.9999999999999966E-4    -7.5E-4                  0                        0.18596165515651128
-1.4999999999999996E-4    -7.5E-4                  0                        0.18085407659716882
-1.0000000000000026E-4    -7.5E-4                  0                        0.175922548296283
-4.99999999999997E-5      -7.5E-4                  0                        0.1711634847555663
0                         -7.5E-4                  0                        0.16657607482574205
5.0000000000000565E-5     -7.5E-4                  0                        0.16215266239841541
1.0000000000000026E-4     -7.5E-4                  0                        0.157886868060787
1.4999999999999996E-4     -7.5E-4                  0                        0.15377708490340192
2.0000000000000052E-4     -7.5E-4                  0                        0.1498202864886024
2.500000000000002E-4      -7.5E-4                  0                        0.14600459919552097
2.999999999999999E-4      -7.5E-4                  0                        0.14232896872799983
3.500000000000005E-4      -7.5E-4                  0                        0.1387900207690361
4.000000000000002E-4      -7.5E-4                  0                        0.13538529883333336