% Model:              fine_3d_8electrodes.mph
% Version:            COMSOL 5.3.0.260
% Date:               Apr 27 2020, 13:27
% Dimension:          3
% Nodes:              6633
% Expressions:        1
% Description:        Electric potential
% Length unit:        m
% X                       Y                        Z                        V (V)
-0.005                    -8.0E-4                  0                        1.77813249607412
-0.00495                  -8.0E-4                  0                        1.9343461554762655
-0.0049                   -8.0E-4                  0                        2.014042408761542
-0.00485                  -8.0E-4                  0                        2.1010168148507176
-0.0048000000000000004    -8.0E-4                  0                        2.1994530362806795
-0.00475                  -8.0E-4                  0                        2.354906343059686
-0.0047                   -8.0E-4                  0                        2.400002043702402
-0.0046500000000000005    -8.0E-4                  0                        2.4293341930067625
-0.0046                   -8.0E-4                  0                        2.4393801184249244
-0.00455                  -8.0E-4                  0                        2.445004999957571
-0.0045000000000000005    -8.0E-4                  0                        2.445666231059575
-0.00445                  -8.0E-4                  0                        2.440475267487255
-0.0044                   -8.0E-4                  0                        2.4292818824679316
-0.00435                  -8.0E-4                  0                        2.407518500426757
-0.0043                   -8.0E-4                  0                        2.360421404851859
-0.00425                  -8.0E-4                  0                        2.2870310627247656
-0.0042                   -8.0E-4                  0                        2.0820262069087008
-0.00415                  -8.0E-4                  0                        1.8943120500537174
-0.0041                   -8.0E-4                  0                        1.747883729508286
-0.00405                  -8.0E-4                  0                        1.6232333267533035
-0.004                    -8.0E-4                  0                        1.5188729962466068
-0.00395                  -8.0E-4                  0                        1.4276748868964744
-0.0039                   -8.0E-4                  0                        1.3481833871225959
-0.00385                  -8.0E-4                  0                        1.2776929848935892
-0.0038                   -8.0E-4                  0                        1.2146122076104648
-0.00375                  -8.0E-4                  0                        1.1581090795039861
-0.0037                   -8.0E-4                  0                        1.106656612500118
-0.00365                  -8.0E-4                  0                        1.0595066063897167
-0.0036                   -8.0E-4                  0                        1.0161947553903197
-0.00355                  -8.0E-4                  0                        0.9761841069702172
-0.0035                   -8.0E-4                  0                        0.9390851967119285
-0.00345                  -8.0E-4                  0                        0.9044820962547908
-0.0034000000000000002    -8.0E-4                  0                        0.8721915479375438
-0.00335                  -8.0E-4                  0                        0.8418061249450159
-0.0033                   -8.0E-4                  0                        0.8131865489659507
-0.0032500000000000003    -8.0E-4                  0                        0.7861286709547042
-0.0031999999999999997    -8.0E-4                  0                        0.7604968845699432
-0.00315                  -8.0E-4                  0                        0.7362191924636043
-0.0031000000000000003    -8.0E-4                  0                        0.7130496907918846
-0.0030499999999999998    -8.0E-4                  0                        0.690945415987567
-0.003                    -8.0E-4                  0                        0.6698324089901527
-0.00295                  -8.0E-4                  0                        0.6496191035720101
-0.0029                   -8.0E-4                  0                        0.6302283884284902
-0.00285                  -8.0E-4                  0                        0.6116031545190952
-0.0028                   -8.0E-4                  0                        0.5937049209722064
-0.00275                  -8.0E-4                  0                        0.5764381546892702
-0.0027                   -8.0E-4                  0                        0.5597880029054709
-0.00265                  -8.0E-4                  0                        0.5437211994142623
-0.0026                   -8.0E-4                  0                        0.5282017243811025
-0.00255                  -8.0E-4                  0                        0.5132177686816045
-0.0025                   -8.0E-4                  0                        0.4987029699386456
-0.00245                  -8.0E-4                  0                        0.4846462300717273
-0.0024                   -8.0E-4                  0                        0.47102767797334666
-0.00235                  -8.0E-4                  0                        0.4578306125558
-0.0023                   -8.0E-4                  0                        0.4450348867129085
-0.00225                  -8.0E-4                  0                        0.4326205405936926
-0.0022                   -8.0E-4                  0                        0.42057210636727105
-0.00215                  -8.0E-4                  0                        0.40887986348549293
-0.0021                   -8.0E-4                  0                        0.3975231763040777
-0.00205                  -8.0E-4                  0                        0.38649593727130616
-0.002                    -8.0E-4                  0                        0.3757879385114976
-0.00195                  -8.0E-4                  0                        0.36539021035998714
-0.0018999999999999998    -8.0E-4                  0                        0.3552790502295467
-0.00185                  -8.0E-4                  0                        0.3454563473347557
-0.0018                   -8.0E-4                  0                        0.33591553282966763
-0.0017499999999999998    -8.0E-4                  0                        0.3266496808428159
-0.0017000000000000001    -8.0E-4                  0                        0.31764449053881155
-0.00165                  -8.0E-4                  0                        0.3088970200133396
-0.0015999999999999999    -8.0E-4                  0                        0.3003989069675883
-0.0015499999999999997    -8.0E-4                  0                        0.2921472364268807
-0.0015                   -8.0E-4                  0                        0.28412816773178556
-0.00145                  -8.0E-4                  0                        0.27634386794575694
-0.0013999999999999998    -8.0E-4                  0                        0.2687857738957209
-0.00135                  -8.0E-4                  0                        0.26144355063690855
-0.0013                   -8.0E-4                  0                        0.2543205993478511
-0.0012499999999999998    -8.0E-4                  0                        0.24740576275276013
-0.0012000000000000001    -8.0E-4                  0                        0.2406928703626481
-0.00115                  -8.0E-4                  0                        0.23418104291532849
-0.0010999999999999998    -8.0E-4                  0                        0.22786562765180782
-0.0010499999999999997    -8.0E-4                  0                        0.22174015298716587
-0.001                    -8.0E-4                  0                        0.21579946453420415
-9.500000000000003E-4     -8.0E-4                  0                        0.21003870262283714
-8.999999999999998E-4     -8.0E-4                  0                        0.2044542745953598
-8.500000000000001E-4     -8.0E-4                  0                        0.19904166868770767
-7.999999999999995E-4     -8.0E-4                  0                        0.1937985182649274
-7.499999999999998E-4     -8.0E-4                  0                        0.18872279512367524
-7.000000000000001E-4     -8.0E-4                  0                        0.1838044611855125
-6.499999999999995E-4     -8.0E-4                  0                        0.1790418408245449
-5.999999999999998E-4     -8.0E-4                  0                        0.1744313902622428
-5.500000000000001E-4     -8.0E-4                  0                        0.16997088816915212
-4.999999999999996E-4     -8.0E-4                  0                        0.16565579097658384
-4.499999999999999E-4     -8.0E-4                  0                        0.16148266903131991
-4.000000000000002E-4     -8.0E-4                  0                        0.157445440859537
-3.499999999999996E-4     -8.0E-4                  0                        0.1535454363823766
-2.999999999999999E-4     -8.0E-4                  0                        0.14977413762940728
-2.500000000000002E-4     -8.0E-4                  0                        0.14613337534336326
-1.9999999999999966E-4    -8.0E-4                  0                        0.14261877049884816
-1.4999999999999996E-4    -8.0E-4                  0                        0.1392259954075752
-1.0000000000000026E-4    -8.0E-4                  0                        0.1359488285402794
-4.99999999999997E-5      -8.0E-4                  0                        0.13278792262511452
0                         -8.0E-4                  0                        0.12974082776934023
5.0000000000000565E-5     -8.0E-4                  0                        0.12680547931250774
1.0000000000000026E-4     -8.0E-4                  0                        0.1239769734181245
1.4999999999999996E-4     -8.0E-4                  0                        0.12125402784141746
2.0000000000000052E-4     -8.0E-4                  0                        0.11863196681116144
2.500000000000002E-4      -8.0E-4                  0                        0.11611249441949269
2.999999999999999E-4      -8.0E-4                  0                        0.11368796108320992
3.500000000000005E-4      -8.0E-4                  0                        0.11135990763038016
4.000000000000002E-4      -8.0E-4                  0                        0.10912478342012463
4.499999999999999E-4      -8.0E-4                  0                        0.10697997528752937
5.000000000000004E-4      -8.0E-4                  0                        0.1049231543256381
5.500000000000001E-4      -8.0E-4                  0                        0.10295232143699197
5.999999999999998E-4      -8.0E-4                  0                        0.10106549708526966
6.500000000000004E-4      -8.0E-4                  0                        0.09926108394049984
7.000000000000001E-4      -8.0E-4                  0                        0.0975374188030553
7.499999999999998E-4      -8.0E-4                  0                        0.09589239391031716
8.000000000000004E-4      -8.0E-4                  0                        0.09432200228500223
8.500000000000001E-4      -8.0E-4                  0                        0.09282762858277796
8.999999999999998E-4      -8.0E-4                  0                        0.09140445805246208
9.500000000000003E-4      -8.0E-4                  0                        0.09005282028912646
0.001                     -8.0E-4                  0                        0.0887708591607886
0.0010500000000000006     -8.0E-4                  0                        0.08755616880022203
0.0011000000000000003     -8.0E-4                  0                        0.0864065981825153
0.00115                   -8.0E-4                  0                        0.08532087235446181
0.0012000000000000005     -8.0E-4                  0                        0.08429741617038158
0.0012500000000000002     -8.0E-4                  0                        0.08333608283307634
0.0013                    -8.0E-4                  0                        0.08243365380206348
0.0013500000000000005     -8.0E-4                  0                        0.08158912915375142
0.0014000000000000002     -8.0E-4                  0                        0.08079986922210285
0.00145                   -8.0E-4                  0                        0.08006633597319886
0.0015000000000000005     -8.0E-4                  0                        0.07938482835774524
0.0015500000000000002     -8.0E-4                  0                        0.07875543607027155
0.0015999999999999999     -8.0E-4                  0                        0.07817651212411658
0.0016500000000000004     -8.0E-4                  0                        0.077646410532789
0.0017000000000000001     -8.0E-4                  0                        0.07716280975671955
0.0017499999999999998     -8.0E-4                  0                        0.0767242830243759
0.0018000000000000004     -8.0E-4                  0                        0.07632973048837333
0.00185                   -8.0E-4                  0                        0.07597819784181728
0.0019000000000000006     -8.0E-4                  0                        0.07566811943356279
0.0019500000000000003     -8.0E-4                  0                        0.07539768036799974
0.002                     -8.0E-4                  0                        0.07516560917325915
0.0020500000000000006     -8.0E-4                  0                        0.07496985109055637
0.0021000000000000003     -8.0E-4                  0                        0.07480850405640417
0.00215                   -8.0E-4                  0                        0.07468095902241137
0.0022000000000000006     -8.0E-4                  0                        0.07458623853628915
0.0022500000000000003     -8.0E-4                  0                        0.07452222185145567
0.0023                    -8.0E-4                  0                        0.07448741246314684
0.0023500000000000005     -8.0E-4                  0                        0.0744798194795247
0.0024000000000000002     -8.0E-4                  0                        0.07449841856079012
0.00245                   -8.0E-4                  0                        0.07454209733081583
0.0025000000000000005     -8.0E-4                  0                        0.07460914623028699
0.00255                   -8.0E-4                  0                        0.07469866989176518
0.0026                    -8.0E-4                  0                        0.0748093712760924
0.0026500000000000004     -8.0E-4                  0                        0.07493889142446426
0.0027                    -8.0E-4                  0                        0.07508582395466455
0.00275                   -8.0E-4                  0                        0.07524951666785583
0.0028000000000000004     -8.0E-4                  0                        0.0754289687136697
0.002850000000000001      -8.0E-4                  0                        0.07562308562478927
0.0029000000000000007     -8.0E-4                  0                        0.07582943926868306
0.0029500000000000004     -8.0E-4                  0                        0.07604738540787767
0.003                     -8.0E-4                  0                        0.07627575228786618
0.0030499999999999998     -8.0E-4                  0                        0.07651346981500118
0.0030999999999999995     -8.0E-4                  0                        0.07675951157333417
0.003150000000000001      -8.0E-4                  0                        0.07701318310071575
0.0032000000000000006     -8.0E-4                  0                        0.07727370870385734
0.0032500000000000003     -8.0E-4                  0                        0.07753868536302995
0.0033                    -8.0E-4                  0                        0.07780777496991875
0.0033499999999999997     -8.0E-4                  0                        0.07808022567995171
0.003400000000000001      -8.0E-4                  0                        0.07835557892899811
0.003450000000000001      -8.0E-4                  0                        0.07863324468848938
0.0035000000000000005     -8.0E-4                  0                        0.07891126155777234
0.00355                   -8.0E-4                  0                        0.07918929806964801
0.0036                    -8.0E-4                  0                        0.07946683758302574
0.0036499999999999996     -8.0E-4                  0                        0.07974328394905127
0.003700000000000001      -8.0E-4                  0                        0.08001780677741296
0.0037500000000000007     -8.0E-4                  0                        0.08029011070534656
0.0038000000000000004     -8.0E-4                  0                        0.08056000154683433
0.00385                   -8.0E-4                  0                        0.08082554461807202
0.0039                    -8.0E-4                  0                        0.08108738201176882
0.0039499999999999995     -8.0E-4                  0                        0.08134478984109018
0.004000000000000001      -8.0E-4                  0                        0.0815974471363259
0.004050000000000001      -8.0E-4                  0                        0.08184627282536856
0.0041                    -8.0E-4                  0                        0.08208841479738962
0.00415                   -8.0E-4                  0                        0.08232540375694783
0.0042                    -8.0E-4                  0                        0.08255701062691573
0.004250000000000001      -8.0E-4                  0                        0.08278233069479134
0.004300000000000001      -8.0E-4                  0                        0.08300247140446895
0.004350000000000001      -8.0E-4                  0                        0.08321648805682308
0.0044                    -8.0E-4                  0                        0.08342737433479117
0.00445                   -8.0E-4                  0                        0.08363078162019201
0.0045                    -8.0E-4                  0                        0.08383217896964694
0.004550000000000001      -8.0E-4                  0                        0.08403123434545595
0.004600000000000001      -8.0E-4                  0                        0.08422717038165468
0.0046500000000000005     -8.0E-4                  0                        0.08442817219598223
0.0047                    -8.0E-4                  0                        0.08463740154484681
0.00475                   -8.0E-4                  0                        0.0848555845304753
0.0048                    -8.0E-4                  0                        0.08509570755691447
0.004850000000000001      -8.0E-4                  0                        0.0854164286344954
0.004900000000000001      -8.0E-4                  0                        0.08621306774559263
0.00495                   -8.0E-4                  0                        0.08749403681481695
0.005                     -8.0E-4                  0                        0.08890045210789979
-0.005                    -7.5E-4                  0                        1.8879339879645973
-0.00495                  -7.5E-4                  0                        2.0807462274160904
-0.0049                   -7.5E-4                  0                        2.1549796925577454
-0.00485                  -7.5E-4                  0                        2.2131373559328886
-0.0048000000000000004    -7.5E-4                  0                        2.3773755939329395
-0.00475                  -7.5E-4                  0                        2.6503928367669283
-0.0047                   -7.5E-4                  0                        2.6503928367670926
-0.0046500000000000005    -7.5E-4                  0                        2.6503928367670895
-0.0046                   -7.5E-4                  0                        2.650392836767089
-0.00455                  -7.5E-4                  0                        2.650392836767091
-0.0045000000000000005    -7.5E-4                  0                        2.6503928367670913
-0.00445                  -7.5E-4                  0                        2.6503928367670886
-0.0044                   -7.5E-4                  0                        2.650392836767089
-0.00435                  -7.5E-4                  0                        2.650392836767088
-0.0043                   -7.5E-4                  0                        2.6503928367670904
-0.00425                  -7.5E-4                  0                        2.6503928367670895
-0.0042                   -7.5E-4                  0                        2.2243993561539903
-0.00415                  -7.5E-4                  0                        1.9667068268508323
-0.0041                   -7.5E-4                  0                        1.8065695750853192
-0.00405                  -7.5E-4                  0                        1.6750080547626927
-0.004                    -7.5E-4                  0                        1.5683095884523608
-0.00395                  -7.5E-4                  0                        1.4741990168147237
-0.0039                   -7.5E-4                  0                        1.3919149645937834
-0.00385                  -7.5E-4                  0                        1.320163487855879
-0.0038                   -7.5E-4                  0                        1.2553510758600446
-0.00375                  -7.5E-4                  0                        1.1975536069101942
-0.0037                   -7.5E-4                  0                        1.1449384898685802
-0.00365                  -7.5E-4                  0                        1.0968940871071278
-0.0036                   -7.5E-4                  0                        1.052437785863707
-0.00355                  -7.5E-4                  0                        1.011316419530571
-0.0035                   -7.5E-4                  0                        0.9731682134660778
-0.00345                  -7.5E-4                  0                        0.9375328855578472
-0.0034000000000000002    -7.5E-4                  0                        0.904321325149545
-0.00335                  -7.5E-4                  0                        0.8730039611232399
-0.0033                   -7.5E-4                  0                        0.8434956991353022
-0.0032500000000000003    -7.5E-4                  0                        0.8155298708266898
-0.0031999999999999997    -7.5E-4                  0                        0.7890042390166756
-0.00315                  -7.5E-4                  0                        0.7638796356568541
-0.0031000000000000003    -7.5E-4                  0                        0.7398735141009722
-0.0030499999999999998    -7.5E-4                  0                        0.7169319158895842
-0.003                    -7.5E-4                  0                        0.6950363102597759
-0.00295                  -7.5E-4                  0                        0.6740406414142867
-0.0029                   -7.5E-4                  0                        0.6538572439616185
-0.00285                  -7.5E-4                  0                        0.6344680427051671
-0.0028                   -7.5E-4                  0                        0.6158342972732043
-0.00275                  -7.5E-4                  0                        0.5978384920171526
-0.0027                   -7.5E-4                  0                        0.5804739192235546
-0.00265                  -7.5E-4                  0                        0.5637079200736537
-0.0026                   -7.5E-4                  0                        0.547500009079623
-0.00255                  -7.5E-4                  0                        0.5318416179951271
-0.0025                   -7.5E-4                  0                        0.5166718782429593
-0.00245                  -7.5E-4                  0                        0.5019792743847545
-0.0024                   -7.5E-4                  0                        0.4877311559725589
-0.00235                  -7.5E-4                  0                        0.4739138684471881
-0.0023                   -7.5E-4                  0                        0.4605138821399838
-0.00225                  -7.5E-4                  0                        0.44751038753622263
-0.0022                   -7.5E-4                  0                        0.4348971752760769
-0.00215                  -7.5E-4                  0                        0.4226416293798587
-0.0021                   -7.5E-4                  0                        0.41073911169957633
-0.00205                  -7.5E-4                  0                        0.3991747362039984
-0.002                    -7.5E-4                  0                        0.38794286648498344
-0.00195                  -7.5E-4                  0                        0.3770389973822367
-0.0018999999999999998    -7.5E-4                  0                        0.366437673813028
-0.00185                  -7.5E-4                  0                        0.356134906696108
-0.0018                   -7.5E-4                  0                        0.3461251027979763
-0.0017499999999999998    -7.5E-4                  0                        0.3363987633996067
-0.0017000000000000001    -7.5E-4                  0                        0.326947900653342
-0.00165                  -7.5E-4                  0                        0.3177662551822796
-0.0015999999999999999    -7.5E-4                  0                        0.3088514788401858
-0.0015499999999999997    -7.5E-4                  0                        0.30018662920162276
-0.0015                   -7.5E-4                  0                        0.2917689276192447
-0.00145                  -7.5E-4                  0                        0.283592800207192
-0.0013999999999999998    -7.5E-4                  0                        0.2756544383257632
-0.00135                  -7.5E-4                  0                        0.2679529293277582
-0.0013                   -7.5E-4                  0                        0.260473196794868
-0.0012499999999999998    -7.5E-4                  0                        0.2532114603292992
-0.0012000000000000001    -7.5E-4                  0                        0.24616376418529423
-0.00115                  -7.5E-4                  0                        0.23932497436099112
-0.0010999999999999998    -7.5E-4                  0                        0.23269205789899772
-0.0010499999999999997    -7.5E-4                  0                        0.2262600879799735
-0.001                    -7.5E-4                  0                        0.22002530468376455
-9.500000000000003E-4     -7.5E-4                  0                        0.21397660869847746
-8.999999999999998E-4     -7.5E-4                  0                        0.20811310014061413
-8.500000000000001E-4     -7.5E-4                  0                        0.20242968195479388
-7.999999999999995E-4     -7.5E-4                  0                        0.19692553558237375
-7.499999999999998E-4     -7.5E-4                  0                        0.19159698381222048
-7.000000000000001E-4     -7.5E-4                  0                        0.18643291482001279
-6.499999999999995E-4     -7.5E-4                  0                        0.18143312103898512
-5.999999999999998E-4     -7.5E-4                  0                        0.17659373958004518
-5.500000000000001E-4     -7.5E-4                  0                        0.17191090562496383
-4.999999999999996E-4     -7.5E-4                  0                        0.16738000338338052
-4.499999999999999E-4     -7.5E-4                  0                        0.16299951039424293
-4.000000000000002E-4     -7.5E-4                  0                        0.158766560795836
-3.499999999999996E-4     -7.5E-4                  0                        0.1546715132407461
-2.999999999999999E-4     -7.5E-4                  0                        0.15071383993060194
-2.500000000000002E-4     -7.5E-4                  0                        0.14689213160157907
-1.9999999999999966E-4    -7.5E-4                  0                        0.14320242207675601
-1.4999999999999996E-4    -7.5E-4                  0                        0.13964379299741853
-1.0000000000000026E-4    -7.5E-4                  0                        0.13620758056604898
-4.99999999999997E-5      -7.5E-4                  0                        0.13289187564216773
0                         -7.5E-4                  0                        0.12969633593315746
5.0000000000000565E-5     -7.5E-4                  0                        0.12661682993114487
1.0000000000000026E-4     -7.5E-4                  0                        0.12364965190674024
1.4999999999999996E-4     -7.5E-4                  0                        0.12079402020030983
2.0000000000000052E-4     -7.5E-4                  0                        0.11804811597491832
2.500000000000002E-4      -7.5E-4                  0                        0.11540481574775208
2.999999999999999E-4      -7.5E-4                  0                        0.11286349752998037
3.500000000000005E-4      -7.5E-4                  0                        0.11042216023878731
4.000000000000002E-4      -7.5E-4                  0                        0.10807938609914523