% Model:              fine_3d_8electrodes.mph
% Version:            COMSOL 5.3.0.260
% Date:               Apr 27 2020, 13:36
% Dimension:          3
% Nodes:              6633
% Expressions:        1
% Description:        Electric potential
% Length unit:        m
% X                       Y                        Z                        V (V)
-0.005                    -8.0E-4                  0                        0.344296796620543
-0.00495                  -8.0E-4                  0                        0.36291182570917424
-0.0049                   -8.0E-4                  0                        0.36952061589236074
-0.00485                  -8.0E-4                  0                        0.3711895176729773
-0.0048000000000000004    -8.0E-4                  0                        0.3741309773686643
-0.00475                  -8.0E-4                  0                        0.37654391594511405
-0.0047                   -8.0E-4                  0                        0.379565938010724
-0.0046500000000000005    -8.0E-4                  0                        0.38281024064172575
-0.0046                   -8.0E-4                  0                        0.3861667490542909
-0.00455                  -8.0E-4                  0                        0.38973217302675256
-0.0045000000000000005    -8.0E-4                  0                        0.39349529943083505
-0.00445                  -8.0E-4                  0                        0.397474053523927
-0.0044                   -8.0E-4                  0                        0.4016864827558841
-0.00435                  -8.0E-4                  0                        0.40613995870803005
-0.0043                   -8.0E-4                  0                        0.4108801054661969
-0.00425                  -8.0E-4                  0                        0.41591368535409284
-0.0042                   -8.0E-4                  0                        0.42125947392528845
-0.00415                  -8.0E-4                  0                        0.42694122040567317
-0.0041                   -8.0E-4                  0                        0.4329881811148065
-0.00405                  -8.0E-4                  0                        0.43941302414790967
-0.004                    -8.0E-4                  0                        0.44623091020828387
-0.00395                  -8.0E-4                  0                        0.4535232483811169
-0.0039                   -8.0E-4                  0                        0.46128722342997275
-0.00385                  -8.0E-4                  0                        0.4695819599618028
-0.0038                   -8.0E-4                  0                        0.4784225195739407
-0.00375                  -8.0E-4                  0                        0.48781853927947294
-0.0037                   -8.0E-4                  0                        0.49791033442406885
-0.00365                  -8.0E-4                  0                        0.5087196134348668
-0.0036                   -8.0E-4                  0                        0.5203061063818386
-0.00355                  -8.0E-4                  0                        0.5327473046948004
-0.0035                   -8.0E-4                  0                        0.5461448194279388
-0.00345                  -8.0E-4                  0                        0.5605722839930833
-0.0034000000000000002    -8.0E-4                  0                        0.5760817524901412
-0.00335                  -8.0E-4                  0                        0.5929529997569282
-0.0033                   -8.0E-4                  0                        0.6112423863304001
-0.0032500000000000003    -8.0E-4                  0                        0.6311763878182985
-0.0031999999999999997    -8.0E-4                  0                        0.6528965804490281
-0.00315                  -8.0E-4                  0                        0.6765160272586912
-0.0031000000000000003    -8.0E-4                  0                        0.7026168467798953
-0.0030499999999999998    -8.0E-4                  0                        0.7312932941068087
-0.003                    -8.0E-4                  0                        0.762982240145426
-0.00295                  -8.0E-4                  0                        0.798143944968206
-0.0029                   -8.0E-4                  0                        0.8374016073900677
-0.00285                  -8.0E-4                  0                        0.8813459062620975
-0.0028                   -8.0E-4                  0                        0.9304711502597498
-0.00275                  -8.0E-4                  0                        0.986965225075166
-0.0027                   -8.0E-4                  0                        1.0510616818907637
-0.00265                  -8.0E-4                  0                        1.1258080405236777
-0.0026                   -8.0E-4                  0                        1.2129919595710155
-0.00255                  -8.0E-4                  0                        1.313323824367267
-0.0025                   -8.0E-4                  0                        1.4417444057672626
-0.00245                  -8.0E-4                  0                        1.6020267942384123
-0.0024                   -8.0E-4                  0                        1.7710406582713096
-0.00235                  -8.0E-4                  0                        1.9853043428113804
-0.0023                   -8.0E-4                  0                        2.06497343942429
-0.00225                  -8.0E-4                  0                        2.113581952539241
-0.0022                   -8.0E-4                  0                        2.1294886279109604
-0.00215                  -8.0E-4                  0                        2.1420799412912848
-0.0021                   -8.0E-4                  0                        2.1435839713729226
-0.00205                  -8.0E-4                  0                        2.1399177994283596
-0.002                    -8.0E-4                  0                        2.130756333008448
-0.00195                  -8.0E-4                  0                        2.111272971928295
-0.0018999999999999998    -8.0E-4                  0                        2.0633015086863185
-0.00185                  -8.0E-4                  0                        1.9978758994098746
-0.0018                   -8.0E-4                  0                        1.7457681603530975
-0.0017499999999999998    -8.0E-4                  0                        1.5578935359664046
-0.0017000000000000001    -8.0E-4                  0                        1.4053624621304972
-0.00165                  -8.0E-4                  0                        1.27740739210249
-0.0015999999999999999    -8.0E-4                  0                        1.1719484726662914
-0.0015499999999999997    -8.0E-4                  0                        1.0817036355605558
-0.0015                   -8.0E-4                  0                        1.003243882287846
-0.00145                  -8.0E-4                  0                        0.9346661636960312
-0.0013999999999999998    -8.0E-4                  0                        0.8739251935220894
-0.00135                  -8.0E-4                  0                        0.8202117703506845
-0.0013                   -8.0E-4                  0                        0.7720111921019035
-0.0012499999999999998    -8.0E-4                  0                        0.7286708166792292
-0.0012000000000000001    -8.0E-4                  0                        0.6892527719373261
-0.00115                  -8.0E-4                  0                        0.6533583945056574
-0.0010999999999999998    -8.0E-4                  0                        0.6206677634024199
-0.0010499999999999997    -8.0E-4                  0                        0.5906258155855266
-0.001                    -8.0E-4                  0                        0.5630628215052763
-9.500000000000003E-4     -8.0E-4                  0                        0.5374385747006968
-8.999999999999998E-4     -8.0E-4                  0                        0.5136831638429636
-8.500000000000001E-4     -8.0E-4                  0                        0.49159363606266054
-7.999999999999995E-4     -8.0E-4                  0                        0.47099908412786756
-7.499999999999998E-4     -8.0E-4                  0                        0.4518253569335843
-7.000000000000001E-4     -8.0E-4                  0                        0.433773345501946
-6.499999999999995E-4     -8.0E-4                  0                        0.41681529775480974
-5.999999999999998E-4     -8.0E-4                  0                        0.40086116382485437
-5.500000000000001E-4     -8.0E-4                  0                        0.38581463275502004
-4.999999999999996E-4     -8.0E-4                  0                        0.3716089750399535
-4.499999999999999E-4     -8.0E-4                  0                        0.358163542554014
-4.000000000000002E-4     -8.0E-4                  0                        0.34543559810355057
-3.499999999999996E-4     -8.0E-4                  0                        0.3333344527299379
-2.999999999999999E-4     -8.0E-4                  0                        0.32183508826494744
-2.500000000000002E-4     -8.0E-4                  0                        0.31089915075123353
-1.9999999999999966E-4    -8.0E-4                  0                        0.30048326744985454
-1.4999999999999996E-4    -8.0E-4                  0                        0.29056941849836543
-1.0000000000000026E-4    -8.0E-4                  0                        0.2810910642242529
-4.99999999999997E-5      -8.0E-4                  0                        0.2720370233186604
0                         -8.0E-4                  0                        0.2633864088959956
5.0000000000000565E-5     -8.0E-4                  0                        0.2551152081651635
1.0000000000000026E-4     -8.0E-4                  0                        0.24719822557046514
1.4999999999999996E-4     -8.0E-4                  0                        0.2396169811215153
2.0000000000000052E-4     -8.0E-4                  0                        0.23235622899736708
2.500000000000002E-4      -8.0E-4                  0                        0.2253952856644264
2.999999999999999E-4      -8.0E-4                  0                        0.218715776720379
3.500000000000005E-4      -8.0E-4                  0                        0.21231092489607178
4.000000000000002E-4      -8.0E-4                  0                        0.20616548050692834
4.499999999999999E-4      -8.0E-4                  0                        0.20026983816243282
5.000000000000004E-4      -8.0E-4                  0                        0.1946055211931364
5.500000000000001E-4      -8.0E-4                  0                        0.18916622775365535
5.999999999999998E-4      -8.0E-4                  0                        0.18394129166217787
6.500000000000004E-4      -8.0E-4                  0                        0.17892410065530945
7.000000000000001E-4      -8.0E-4                  0                        0.1741061241193665
7.499999999999998E-4      -8.0E-4                  0                        0.16947871605565576
8.000000000000004E-4      -8.0E-4                  0                        0.1650317598630386
8.500000000000001E-4      -8.0E-4                  0                        0.16076133738294468
8.999999999999998E-4      -8.0E-4                  0                        0.15665662879969888
9.500000000000003E-4      -8.0E-4                  0                        0.15271525626241356
0.001                     -8.0E-4                  0                        0.14893145882424935
0.0010500000000000006     -8.0E-4                  0                        0.1452988301192346
0.0011000000000000003     -8.0E-4                  0                        0.14180864330296475
0.00115                   -8.0E-4                  0                        0.13845783323781927
0.0012000000000000005     -8.0E-4                  0                        0.13524146826109976
0.0012500000000000002     -8.0E-4                  0                        0.1321579716534016
0.0013                    -8.0E-4                  0                        0.12919947041577684
0.0013500000000000005     -8.0E-4                  0                        0.1263625347658198
0.0014000000000000002     -8.0E-4                  0                        0.12364142192908624
0.00145                   -8.0E-4                  0                        0.12103519846233596
0.0015000000000000005     -8.0E-4                  0                        0.11853618271440404
0.0015500000000000002     -8.0E-4                  0                        0.11614389320237893
0.0015999999999999999     -8.0E-4                  0                        0.11385435114996949
0.0016500000000000004     -8.0E-4                  0                        0.11166406791482537
0.0017000000000000001     -8.0E-4                  0                        0.10956761678162702
0.0017499999999999998     -8.0E-4                  0                        0.10756207114795471
0.0018000000000000004     -8.0E-4                  0                        0.10564497621893651
0.00185                   -8.0E-4                  0                        0.10381435728787426
0.0019000000000000006     -8.0E-4                  0                        0.10206715196189538
0.0019500000000000003     -8.0E-4                  0                        0.10039961650469509
0.002                     -8.0E-4                  0                        0.09880921536090963
0.0020500000000000006     -8.0E-4                  0                        0.09729259375353042
0.0021000000000000003     -8.0E-4                  0                        0.09584599641152877
0.00215                   -8.0E-4                  0                        0.09446846823404642
0.0022000000000000006     -8.0E-4                  0                        0.09315801260203102
0.0022500000000000003     -8.0E-4                  0                        0.09191062864850755
0.0023                    -8.0E-4                  0                        0.09072495420171076
0.0023500000000000005     -8.0E-4                  0                        0.08959700651254002
0.0024000000000000002     -8.0E-4                  0                        0.08852510398308105
0.00245                   -8.0E-4                  0                        0.08750762260521823
0.0025000000000000005     -8.0E-4                  0                        0.08654195018959197
0.00255                   -8.0E-4                  0                        0.0856263871730306
0.0026                    -8.0E-4                  0                        0.08475881900167025
0.0026500000000000004     -8.0E-4                  0                        0.08393669234935877
0.0027                    -8.0E-4                  0                        0.08315701885566759
0.00275                   -8.0E-4                  0                        0.08241937300195701
0.0028000000000000004     -8.0E-4                  0                        0.0817218068401338
0.002850000000000001      -8.0E-4                  0                        0.08106244163092372
0.0029000000000000007     -8.0E-4                  0                        0.08043859542185101
0.0029500000000000004     -8.0E-4                  0                        0.07984913590472964
0.003                     -8.0E-4                  0                        0.07929226974501412
0.0030499999999999998     -8.0E-4                  0                        0.07876677269702269
0.0030999999999999995     -8.0E-4                  0                        0.07827108933703569
0.003150000000000001      -8.0E-4                  0                        0.07780399815325878
0.0032000000000000006     -8.0E-4                  0                        0.07736367742903337
0.0032500000000000003     -8.0E-4                  0                        0.07694880943780313
0.0033                    -8.0E-4                  0                        0.07655758339736558
0.0033499999999999997     -8.0E-4                  0                        0.07618949559840912
0.003400000000000001      -8.0E-4                  0                        0.07584348476066262
0.003450000000000001      -8.0E-4                  0                        0.07551833066391153
0.0035000000000000005     -8.0E-4                  0                        0.07521213750018108
0.00355                   -8.0E-4                  0                        0.07492409076457947
0.0036                    -8.0E-4                  0                        0.07465358417292527
0.0036499999999999996     -8.0E-4                  0                        0.07439966650425198
0.003700000000000001      -8.0E-4                  0                        0.07416134138427531
0.0037500000000000007     -8.0E-4                  0                        0.07393794445452076
0.0038000000000000004     -8.0E-4                  0                        0.07372875814757245
0.00385                   -8.0E-4                  0                        0.07353244462078837
0.0039                    -8.0E-4                  0                        0.07334829066811846
0.0039499999999999995     -8.0E-4                  0                        0.07317599189823694
0.004000000000000001      -8.0E-4                  0                        0.07301497059270193
0.004050000000000001      -8.0E-4                  0                        0.07286452212501626
0.0041                    -8.0E-4                  0                        0.07272381467173207
0.00415                   -8.0E-4                  0                        0.07259230758337969
0.0042                    -8.0E-4                  0                        0.07246958172752689
0.004250000000000001      -8.0E-4                  0                        0.07235538291962143
0.004300000000000001      -8.0E-4                  0                        0.07224911784544338
0.004350000000000001      -8.0E-4                  0                        0.07215048143019079
0.0044                    -8.0E-4                  0                        0.0720591939519842
0.00445                   -8.0E-4                  0                        0.07197458535515297
0.0045                    -8.0E-4                  0                        0.07189656418684164
0.004550000000000001      -8.0E-4                  0                        0.07182527138994357
0.004600000000000001      -8.0E-4                  0                        0.07176040835430386
0.0046500000000000005     -8.0E-4                  0                        0.07170299482210127
0.0047                    -8.0E-4                  0                        0.07165418374671165
0.00475                   -8.0E-4                  0                        0.07161382135613296
0.0048                    -8.0E-4                  0                        0.07159453239490535
0.004850000000000001      -8.0E-4                  0                        0.07158737041220058
0.004900000000000001      -8.0E-4                  0                        0.07161396655048721
0.00495                   -8.0E-4                  0                        0.07167056898572072
0.005                     -8.0E-4                  0                        0.07173417583386318
-0.005                    -7.5E-4                  0                        0.36238373900802007
-0.00495                  -7.5E-4                  0                        0.386939050328785
-0.0049                   -7.5E-4                  0                        0.3923816866904003
-0.00485                  -7.5E-4                  0                        0.3928752754156815
-0.0048000000000000004    -7.5E-4                  0                        0.3936230001226778
-0.00475                  -7.5E-4                  0                        0.3945921679193014
-0.0047                   -7.5E-4                  0                        0.397297249529846
-0.0046500000000000005    -7.5E-4                  0                        0.4002311728405151
-0.0046                   -7.5E-4                  0                        0.40339602020346715
-0.00455                  -7.5E-4                  0                        0.4068133106785077
-0.0045000000000000005    -7.5E-4                  0                        0.41048701438853463
-0.00445                  -7.5E-4                  0                        0.41442744471263326
-0.0044                   -7.5E-4                  0                        0.41864233364638553
-0.00435                  -7.5E-4                  0                        0.4231430991261718
-0.0043                   -7.5E-4                  0                        0.4279636794490272
-0.00425                  -7.5E-4                  0                        0.43310454107385393
-0.0042                   -7.5E-4                  0                        0.4385723302554114
-0.00415                  -7.5E-4                  0                        0.44440039034130174
-0.0041                   -7.5E-4                  0                        0.45061646650552256
-0.00405                  -7.5E-4                  0                        0.4572273550068188
-0.004                    -7.5E-4                  0                        0.4642545159313699
-0.00395                  -7.5E-4                  0                        0.47176828254679376
-0.0039                   -7.5E-4                  0                        0.4797727829801383
-0.00385                  -7.5E-4                  0                        0.4883110538989849
-0.0038                   -7.5E-4                  0                        0.49741909429338826
-0.00375                  -7.5E-4                  0                        0.5071013979345991
-0.0037                   -7.5E-4                  0                        0.5174719972356356
-0.00365                  -7.5E-4                  0                        0.5285614457147244
-0.0036                   -7.5E-4                  0                        0.5404719049623816
-0.00355                  -7.5E-4                  0                        0.5532358375670131
-0.0035                   -7.5E-4                  0                        0.5669626002915382
-0.00345                  -7.5E-4                  0                        0.5817261423995755
-0.0034000000000000002    -7.5E-4                  0                        0.5975963455910723
-0.00335                  -7.5E-4                  0                        0.6148321270022215
-0.0033                   -7.5E-4                  0                        0.6334690402966953
-0.0032500000000000003    -7.5E-4                  0                        0.6537845525226438
-0.0031999999999999997    -7.5E-4                  0                        0.6758914462873814
-0.00315                  -7.5E-4                  0                        0.6999244418721658
-0.0031000000000000003    -7.5E-4                  0                        0.7265087617263404
-0.0030499999999999998    -7.5E-4                  0                        0.7557208750279957
-0.003                    -7.5E-4                  0                        0.787773091914121
-0.00295                  -7.5E-4                  0                        0.8233224098285593
-0.0029                   -7.5E-4                  0                        0.8632880489688397
-0.00285                  -7.5E-4                  0                        0.907738819740533
-0.0028                   -7.5E-4                  0                        0.9576604846874144
-0.00275                  -7.5E-4                  0                        1.0149748457557406
-0.0027                   -7.5E-4                  0                        1.0797044871435277
-0.00265                  -7.5E-4                  0                        1.1553350571222598
-0.0026                   -7.5E-4                  0                        1.2439686874775213
-0.00255                  -7.5E-4                  0                        1.3437807328572042
-0.0025                   -7.5E-4                  0                        1.478498282850242
-0.00245                  -7.5E-4                  0                        1.6572409349738149
-0.0024                   -7.5E-4                  0                        1.9474063103949169
-0.00235                  -7.5E-4                  0                        2.346644880453712
-0.0023                   -7.5E-4                  0                        2.346644880453742
-0.00225                  -7.5E-4                  0                        2.3466448804537414
-0.0022                   -7.5E-4                  0                        2.3466448804537423
-0.00215                  -7.5E-4                  0                        2.3466448804537414
-0.0021                   -7.5E-4                  0                        2.346644880453743
-0.00205                  -7.5E-4                  0                        2.3466448804537423
-0.002                    -7.5E-4                  0                        2.34664488045374
-0.00195                  -7.5E-4                  0                        2.3466448804537423
-0.0018999999999999998    -7.5E-4                  0                        2.3466448804537423
-0.00185                  -7.5E-4                  0                        2.346644880453741
-0.0018                   -7.5E-4                  0                        1.8829069577503867
-0.0017499999999999998    -7.5E-4                  0                        1.6099597089813622
-0.0017000000000000001    -7.5E-4                  0                        1.4445251399144394
-0.00165                  -7.5E-4                  0                        1.3087548485180478
-0.0015999999999999999    -7.5E-4                  0                        1.2013249868951377
-0.0015499999999999997    -7.5E-4                  0                        1.1094811596787593
-0.0015                   -7.5E-4                  0                        1.0307410334816614
-0.00145                  -7.5E-4                  0                        0.9603873444652128
-0.0013999999999999998    -7.5E-4                  0                        0.8978499985936985
-0.00135                  -7.5E-4                  0                        0.8433110763486759
-0.0013                   -7.5E-4                  0                        0.7944845838560501
-0.0012499999999999998    -7.5E-4                  0                        0.7505362619551917
-0.0012000000000000001    -7.5E-4                  0                        0.7103714259347161
-0.00115                  -7.5E-4                  0                        0.6735991649524313
-0.0010999999999999998    -7.5E-4                  0                        0.6403365561050001
-0.0010499999999999997    -7.5E-4                  0                        0.6097378422492963
-0.001                    -7.5E-4                  0                        0.581579256130382
-9.500000000000003E-4     -7.5E-4                  0                        0.5553486966077074
-8.999999999999998E-4     -7.5E-4                  0                        0.5310357762343553
-8.500000000000001E-4     -7.5E-4                  0                        0.5083898524233733
-7.999999999999995E-4     -7.5E-4                  0                        0.4872669369774211
-7.499999999999998E-4     -7.5E-4                  0                        0.46755165814936117
-7.000000000000001E-4     -7.5E-4                  0                        0.4489473810936281
-6.499999999999995E-4     -7.5E-4                  0                        0.4314639931702911
-5.999999999999998E-4     -7.5E-4                  0                        0.41502946677644
-5.500000000000001E-4     -7.5E-4                  0                        0.3994982460176905
-4.999999999999996E-4     -7.5E-4                  0                        0.38480352781996247
-4.499999999999999E-4     -7.5E-4                  0                        0.37089306047245657
-4.000000000000002E-4     -7.5E-4                  0                        0.35772191953258137
-3.499999999999996E-4     -7.5E-4                  0                        0.34516936348734567
-2.999999999999999E-4     -7.5E-4                  0                        0.33323158043477885
-2.500000000000002E-4     -7.5E-4                  0                        0.32186978430113106
-1.9999999999999966E-4    -7.5E-4                  0                        0.3110370868824024
-1.4999999999999996E-4    -7.5E-4                  0                        0.30072713301725024
-1.0000000000000026E-4    -7.5E-4                  0                        0.29086356697680465
-4.99999999999997E-5      -7.5E-4                  0                        0.2814280043239639
0                         -7.5E-4                  0                        0.2724149714346665
5.0000000000000565E-5     -7.5E-4                  0                        0.2637870203260695
1.0000000000000026E-4     -7.5E-4                  0                        0.25551949447146693
1.4999999999999996E-4     -7.5E-4                  0                        0.24760182214501467
2.0000000000000052E-4     -7.5E-4                  0                        0.2400241339608188
2.500000000000002E-4      -7.5E-4                  0                        0.2327448641069583
2.999999999999999E-4      -7.5E-4                  0                        0.22575979769637428
3.500000000000005E-4      -7.5E-4                  0                        0.21905692630561713
4.000000000000002E-4      -7.5E-4                  0                        0.21262576949242482
4.499999999999999E-4      -7.5E-4                  0                        0.20645661363853096