% Model:              fine_3d_8electrodes.mph
% Version:            COMSOL 5.3.0.260
% Date:               Apr 27 2020, 13:38
% Dimension:          3
% Nodes:              6633
% Expressions:        1
% Description:        Electric potential
% Length unit:        m
% X                       Y                        Z                        V (V)
-0.005                    -8.0E-4                  0                        0.17824268819673572
-0.00495                  -8.0E-4                  0                        0.18671841298424985
-0.0049                   -8.0E-4                  0                        0.18970945966315989
-0.00485                  -8.0E-4                  0                        0.190419621164337
-0.0048000000000000004    -8.0E-4                  0                        0.19169241748678972
-0.00475                  -8.0E-4                  0                        0.19270737369809182
-0.0047                   -8.0E-4                  0                        0.19394502041578618
-0.0046500000000000005    -8.0E-4                  0                        0.19526045721331195
-0.0046                   -8.0E-4                  0                        0.19660135343290575
-0.00455                  -8.0E-4                  0                        0.19801395097597382
-0.0045000000000000005    -8.0E-4                  0                        0.19949214803252657
-0.00445                  -8.0E-4                  0                        0.20104114687744723
-0.0044                   -8.0E-4                  0                        0.2026673692103576
-0.00435                  -8.0E-4                  0                        0.20437259222645565
-0.0043                   -8.0E-4                  0                        0.20616925209885217
-0.00425                  -8.0E-4                  0                        0.2080592116896927
-0.0042                   -8.0E-4                  0                        0.2100460151926081
-0.00415                  -8.0E-4                  0                        0.21213494117529802
-0.0041                   -8.0E-4                  0                        0.21433163853027928
-0.00405                  -8.0E-4                  0                        0.2166365480571575
-0.004                    -8.0E-4                  0                        0.21905172457113486
-0.00395                  -8.0E-4                  0                        0.2215959024437034
-0.0039                   -8.0E-4                  0                        0.22426388306821587
-0.00385                  -8.0E-4                  0                        0.2270654950253034
-0.0038                   -8.0E-4                  0                        0.23000130066687285
-0.00375                  -8.0E-4                  0                        0.23306828994169684
-0.0037                   -8.0E-4                  0                        0.23629492985739
-0.00365                  -8.0E-4                  0                        0.2396765651701094
-0.0036                   -8.0E-4                  0                        0.2432212267109554
-0.00355                  -8.0E-4                  0                        0.24693743227930706
-0.0035                   -8.0E-4                  0                        0.25083670921332174
-0.00345                  -8.0E-4                  0                        0.25492174192719763
-0.0034000000000000002    -8.0E-4                  0                        0.2591933516801871
-0.00335                  -8.0E-4                  0                        0.2636891548398236
-0.0033                   -8.0E-4                  0                        0.26840585513817417
-0.0032500000000000003    -8.0E-4                  0                        0.2733599621088988
-0.0031999999999999997    -8.0E-4                  0                        0.2785583004480458
-0.00315                  -8.0E-4                  0                        0.28400536215483174
-0.0031000000000000003    -8.0E-4                  0                        0.28974403821767075
-0.0030499999999999998    -8.0E-4                  0                        0.29577959991806907
-0.003                    -8.0E-4                  0                        0.302134194317971
-0.00295                  -8.0E-4                  0                        0.308827666340414
-0.0029                   -8.0E-4                  0                        0.3158864712021688
-0.00285                  -8.0E-4                  0                        0.3233248859130805
-0.0028                   -8.0E-4                  0                        0.33116171056326144
-0.00275                  -8.0E-4                  0                        0.33947313541886126
-0.0027                   -8.0E-4                  0                        0.3482649335515575
-0.00265                  -8.0E-4                  0                        0.35758323391205016
-0.0026                   -8.0E-4                  0                        0.3674615060701882
-0.00255                  -8.0E-4                  0                        0.3779188163240379
-0.0025                   -8.0E-4                  0                        0.3890760213889978
-0.00245                  -8.0E-4                  0                        0.40095348512514334
-0.0024                   -8.0E-4                  0                        0.41364423197788347
-0.00235                  -8.0E-4                  0                        0.4272083382183996
-0.0023                   -8.0E-4                  0                        0.4417287724194044
-0.00225                  -8.0E-4                  0                        0.4573019607904787
-0.0022                   -8.0E-4                  0                        0.47397621546661617
-0.00215                  -8.0E-4                  0                        0.49205380637919793
-0.0021                   -8.0E-4                  0                        0.5115677148075363
-0.00205                  -8.0E-4                  0                        0.5327408024545617
-0.002                    -8.0E-4                  0                        0.5557401159418547
-0.00195                  -8.0E-4                  0                        0.5806717741253655
-0.0018999999999999998    -8.0E-4                  0                        0.6080682040657721
-0.00185                  -8.0E-4                  0                        0.6380714342628074
-0.0018                   -8.0E-4                  0                        0.6711604810864429
-0.0017499999999999998    -8.0E-4                  0                        0.7078181850241531
-0.0017000000000000001    -8.0E-4                  0                        0.7485111162576327
-0.00165                  -8.0E-4                  0                        0.7939826499949759
-0.0015999999999999999    -8.0E-4                  0                        0.8446717151893953
-0.0015499999999999997    -8.0E-4                  0                        0.9026094096429479
-0.0015                   -8.0E-4                  0                        0.9680238873277957
-0.00145                  -8.0E-4                  0                        1.045045590021396
-0.0013999999999999998    -8.0E-4                  0                        1.134707331714774
-0.00135                  -8.0E-4                  0                        1.2347888243369458
-0.0013                   -8.0E-4                  0                        1.3697634223470894
-0.0012499999999999998    -8.0E-4                  0                        1.5306220150013994
-0.0012000000000000001    -8.0E-4                  0                        1.7140914399663103
-0.00115                  -8.0E-4                  0                        1.9190556770012295
-0.0010999999999999998    -8.0E-4                  0                        1.9940212414957126
-0.0010499999999999997    -8.0E-4                  0                        2.040433396957927
-0.001                    -8.0E-4                  0                        2.057309479602812
-9.500000000000003E-4     -8.0E-4                  0                        2.0675434434457314
-8.999999999999998E-4     -8.0E-4                  0                        2.0708460593662505
-8.500000000000001E-4     -8.0E-4                  0                        2.0670947656762033
-7.999999999999995E-4     -8.0E-4                  0                        2.0568143103494845
-7.499999999999998E-4     -8.0E-4                  0                        2.0349733919962523
-7.000000000000001E-4     -8.0E-4                  0                        1.9891735094269247
-6.499999999999995E-4     -8.0E-4                  0                        1.9196450055876775
-5.999999999999998E-4     -8.0E-4                  0                        1.6984199811453429
-5.500000000000001E-4     -8.0E-4                  0                        1.505001515482662
-4.999999999999996E-4     -8.0E-4                  0                        1.3470494446987131
-4.499999999999999E-4     -8.0E-4                  0                        1.2216236334344215
-4.000000000000002E-4     -8.0E-4                  0                        1.117179000916154
-3.499999999999996E-4     -8.0E-4                  0                        1.0275846290797233
-2.999999999999999E-4     -8.0E-4                  0                        0.9505883752077352
-2.500000000000002E-4     -8.0E-4                  0                        0.8835901476689612
-1.9999999999999966E-4    -8.0E-4                  0                        0.8242694867010678
-1.4999999999999996E-4    -8.0E-4                  0                        0.7721396181063208
-1.0000000000000026E-4    -8.0E-4                  0                        0.72532836187974
-4.99999999999997E-5      -8.0E-4                  0                        0.6833512589521468
0                         -8.0E-4                  0                        0.6454548842758239
5.0000000000000565E-5     -8.0E-4                  0                        0.6110952485583102
1.0000000000000026E-4     -8.0E-4                  0                        0.5797790949821835
1.4999999999999996E-4     -8.0E-4                  0                        0.5511053119322785
2.0000000000000052E-4     -8.0E-4                  0                        0.5248850126642746
2.500000000000002E-4      -8.0E-4                  0                        0.5006088751452145
2.999999999999999E-4      -8.0E-4                  0                        0.47817236087179316
3.500000000000005E-4      -8.0E-4                  0                        0.45737714060701473
4.000000000000002E-4      -8.0E-4                  0                        0.43805143648678013
4.499999999999999E-4      -8.0E-4                  0                        0.4200960595601944
5.000000000000004E-4      -8.0E-4                  0                        0.40326160444073844
5.500000000000001E-4      -8.0E-4                  0                        0.3875085093580546
5.999999999999998E-4      -8.0E-4                  0                        0.3727157509421647
6.500000000000004E-4      -8.0E-4                  0                        0.35881886238176713
7.000000000000001E-4      -8.0E-4                  0                        0.3457380562563567
7.499999999999998E-4      -8.0E-4                  0                        0.3333962167621149
8.000000000000004E-4      -8.0E-4                  0                        0.3217537970410709
8.500000000000001E-4      -8.0E-4                  0                        0.3107219160111901
8.999999999999998E-4      -8.0E-4                  0                        0.30027188678286854
9.500000000000003E-4      -8.0E-4                  0                        0.2903626504443902
0.001                     -8.0E-4                  0                        0.2809590072571212
0.0010500000000000006     -8.0E-4                  0                        0.27203484170778763
0.0011000000000000003     -8.0E-4                  0                        0.2635289892870905
0.00115                   -8.0E-4                  0                        0.25543208670293366
0.0012000000000000005     -8.0E-4                  0                        0.24772063756744145
0.0012500000000000002     -8.0E-4                  0                        0.24037395382854243
0.0013                    -8.0E-4                  0                        0.23336526095814952
0.0013500000000000005     -8.0E-4                  0                        0.22667437740767454
0.0014000000000000002     -8.0E-4                  0                        0.2202866624010182
0.00145                   -8.0E-4                  0                        0.21418176894701643
0.0015000000000000005     -8.0E-4                  0                        0.2083435174161814
0.0015500000000000002     -8.0E-4                  0                        0.2027634620637052
0.0015999999999999999     -8.0E-4                  0                        0.19742751616681545
0.0016500000000000004     -8.0E-4                  0                        0.19232693121472472
0.0017000000000000001     -8.0E-4                  0                        0.1874406106939217
0.0017499999999999998     -8.0E-4                  0                        0.18276169067279457
0.0018000000000000004     -8.0E-4                  0                        0.1782815776642751
0.00185                   -8.0E-4                  0                        0.17399330863702278
0.0019000000000000006     -8.0E-4                  0                        0.16988925254955584
0.0019500000000000003     -8.0E-4                  0                        0.16595824344733412
0.002                     -8.0E-4                  0                        0.1621942292522791
0.0020500000000000006     -8.0E-4                  0                        0.15858725921413327
0.0021000000000000003     -8.0E-4                  0                        0.15512990904793283
0.00215                   -8.0E-4                  0                        0.15181826628506653
0.0022000000000000006     -8.0E-4                  0                        0.14864751589338018
0.0022500000000000003     -8.0E-4                  0                        0.1456095639342972
0.0023                    -8.0E-4                  0                        0.1426998315678259
0.0023500000000000005     -8.0E-4                  0                        0.1399106790843053
0.0024000000000000002     -8.0E-4                  0                        0.13723783810094378
0.00245                   -8.0E-4                  0                        0.1346778753161375
0.0025000000000000005     -8.0E-4                  0                        0.13222563322227965
0.00255                   -8.0E-4                  0                        0.12987701830187753
0.0026                    -8.0E-4                  0                        0.12762795856890374
0.0026500000000000004     -8.0E-4                  0                        0.12547360864424895
0.0027                    -8.0E-4                  0                        0.12340805598820954
0.00275                   -8.0E-4                  0                        0.12143047722277302
0.0028000000000000004     -8.0E-4                  0                        0.11953677582667263
0.002850000000000001      -8.0E-4                  0                        0.11772341251186001
0.0029000000000000007     -8.0E-4                  0                        0.11598570935178638
0.0029500000000000004     -8.0E-4                  0                        0.11432149557406558
0.003                     -8.0E-4                  0                        0.11272742179166291
0.0030499999999999998     -8.0E-4                  0                        0.11120130738419264
0.0030999999999999995     -8.0E-4                  0                        0.10974032477345824
0.003150000000000001      -8.0E-4                  0                        0.10834204227837585
0.0032000000000000006     -8.0E-4                  0                        0.10700281894320156
0.0032500000000000003     -8.0E-4                  0                        0.10572158108060262
0.0033                    -8.0E-4                  0                        0.10449426242069754
0.0033499999999999997     -8.0E-4                  0                        0.10332030462318588
0.003400000000000001      -8.0E-4                  0                        0.10219751605099153
0.003450000000000001      -8.0E-4                  0                        0.10112352079112413
0.0035000000000000005     -8.0E-4                  0                        0.10009555493377888
0.00355                   -8.0E-4                  0                        0.09911196607532455
0.0036                    -8.0E-4                  0                        0.09817174608452575
0.0036499999999999996     -8.0E-4                  0                        0.09727319476830026
0.003700000000000001      -8.0E-4                  0                        0.09641468561829396
0.0037500000000000007     -8.0E-4                  0                        0.0955948626071465
0.0038000000000000004     -8.0E-4                  0                        0.0948121944903096
0.00385                   -8.0E-4                  0                        0.09406532384931347
0.0039                    -8.0E-4                  0                        0.09335186407338174
0.0039499999999999995     -8.0E-4                  0                        0.09267170844757465
0.004000000000000001      -8.0E-4                  0                        0.09202382651872594
0.004050000000000001      -8.0E-4                  0                        0.0914055940353837
0.0041                    -8.0E-4                  0                        0.09081787021923729
0.00415                   -8.0E-4                  0                        0.09025777107604561
0.0042                    -8.0E-4                  0                        0.08972449528032939
0.004250000000000001      -8.0E-4                  0                        0.08921834405310719
0.004300000000000001      -8.0E-4                  0                        0.08873667868994242
0.004350000000000001      -8.0E-4                  0                        0.08827978925967521
0.0044                    -8.0E-4                  0                        0.08784393714310822
0.00445                   -8.0E-4                  0                        0.08743190792322139
0.0045                    -8.0E-4                  0                        0.08703791730587719
0.004550000000000001      -8.0E-4                  0                        0.08666263346723942
0.004600000000000001      -8.0E-4                  0                        0.08630612791546942
0.0046500000000000005     -8.0E-4                  0                        0.08596255177479607
0.0047                    -8.0E-4                  0                        0.08563148731985187
0.00475                   -8.0E-4                  0                        0.08531182586564254
0.0048                    -8.0E-4                  0                        0.08502098579169257
0.004850000000000001      -8.0E-4                  0                        0.08467762699820934
0.004900000000000001      -8.0E-4                  0                        0.08393247084463105
0.00495                   -8.0E-4                  0                        0.08276785136728212
0.005                     -8.0E-4                  0                        0.08149263365950675
-0.005                    -7.5E-4                  0                        0.18652274663171636
-0.00495                  -7.5E-4                  0                        0.1977289564445754
-0.0049                   -7.5E-4                  0                        0.20020347788193
-0.00485                  -7.5E-4                  0                        0.20040148430027213
-0.0048000000000000004    -7.5E-4                  0                        0.20069819160125113
-0.00475                  -7.5E-4                  0                        0.20108236575345623
-0.0047                   -7.5E-4                  0                        0.20215268590203295
-0.0046500000000000005    -7.5E-4                  0                        0.20331120245914602
-0.0046                   -7.5E-4                  0                        0.20455842357125625
-0.00455                  -7.5E-4                  0                        0.2058991580810175
-0.0045000000000000005    -7.5E-4                  0                        0.20733427061974816
-0.00445                  -7.5E-4                  0                        0.20886535785554008
-0.0044                   -7.5E-4                  0                        0.21049377767415825
-0.00435                  -7.5E-4                  0                        0.21222149120472816
-0.0043                   -7.5E-4                  0                        0.2140553649897451
-0.00425                  -7.5E-4                  0                        0.21599580632820428
-0.0042                   -7.5E-4                  0                        0.21804470235457554
-0.00415                  -7.5E-4                  0                        0.22020659400522
-0.0041                   -7.5E-4                  0                        0.22248598920841955
-0.00405                  -7.5E-4                  0                        0.22488397960513554
-0.004                    -7.5E-4                  0                        0.22740356922554622
-0.00395                  -7.5E-4                  0                        0.2300566569413309
-0.0039                   -7.5E-4                  0                        0.2328442879273838
-0.00385                  -7.5E-4                  0                        0.23577082832463025
-0.0038                   -7.5E-4                  0                        0.23884078849401996
-0.00375                  -7.5E-4                  0                        0.24205518903248016
-0.0037                   -7.5E-4                  0                        0.24542945679660239
-0.00365                  -7.5E-4                  0                        0.24896738912224212
-0.0036                   -7.5E-4                  0                        0.25267875893340025
-0.00355                  -7.5E-4                  0                        0.2565676371010416
-0.0035                   -7.5E-4                  0                        0.2606458824950732
-0.00345                  -7.5E-4                  0                        0.26491792304405515
-0.0034000000000000002    -7.5E-4                  0                        0.26939003204065515
-0.00335                  -7.5E-4                  0                        0.2740881562688138
-0.0033                   -7.5E-4                  0                        0.2790155948333543
-0.0032500000000000003    -7.5E-4                  0                        0.2841881251537416
-0.0031999999999999997    -7.5E-4                  0                        0.2896137106803924
-0.00315                  -7.5E-4                  0                        0.29529899244137625
-0.0031000000000000003    -7.5E-4                  0                        0.30128526910155673
-0.0030499999999999998    -7.5E-4                  0                        0.3075796091163375
-0.003                    -7.5E-4                  0                        0.31419263873257675
-0.00295                  -7.5E-4                  0                        0.3211528630781475
-0.0029                   -7.5E-4                  0                        0.3284944650276237
-0.00285                  -7.5E-4                  0                        0.33622159384421546
-0.0028                   -7.5E-4                  0                        0.3443595670111631
-0.00275                  -7.5E-4                  0                        0.35298218624481964
-0.0027                   -7.5E-4                  0                        0.3620938447344507
-0.00265                  -7.5E-4                  0                        0.37173959319654976
-0.0026                   -7.5E-4                  0                        0.38195930677029627
-0.00255                  -7.5E-4                  0                        0.39276355165341637
-0.0025                   -7.5E-4                  0                        0.40426793164299807
-0.00245                  -7.5E-4                  0                        0.4164994343054628
-0.0024                   -7.5E-4                  0                        0.429574101461306
-0.00235                  -7.5E-4                  0                        0.4435274438838712
-0.0023                   -7.5E-4                  0                        0.4584418054948993
-0.00225                  -7.5E-4                  0                        0.47443262850722084
-0.0022                   -7.5E-4                  0                        0.49152553904135105
-0.00215                  -7.5E-4                  0                        0.5100077409785566
-0.0021                   -7.5E-4                  0                        0.5299388432015523
-0.00205                  -7.5E-4                  0                        0.5515888575496276
-0.002                    -7.5E-4                  0                        0.5750499210078408
-0.00195                  -7.5E-4                  0                        0.6004287820354719
-0.0018999999999999998    -7.5E-4                  0                        0.6283398324114018
-0.00185                  -7.5E-4                  0                        0.6588811376844484
-0.0018                   -7.5E-4                  0                        0.6924355372589551
-0.0017499999999999998    -7.5E-4                  0                        0.7295243890497805
-0.0017000000000000001    -7.5E-4                  0                        0.7708916156439196
-0.00165                  -7.5E-4                  0                        0.8170998243516691
-0.0015999999999999999    -7.5E-4                  0                        0.8684358919024885
-0.0015499999999999997    -7.5E-4                  0                        0.9266130989117949
-0.0015                   -7.5E-4                  0                        0.9923907672585123
-0.00145                  -7.5E-4                  0                        1.0721343559148642
-0.0013999999999999998    -7.5E-4                  0                        1.1639062638328832
-0.00135                  -7.5E-4                  0                        1.26791772954054
-0.0013                   -7.5E-4                  0                        1.4081646351895856
-0.0012499999999999998    -7.5E-4                  0                        1.591675124619029
-0.0012000000000000001    -7.5E-4                  0                        1.886397342218754
-0.00115                  -7.5E-4                  0                        2.270612689092414
-0.0010999999999999998    -7.5E-4                  0                        2.270612689092454
-0.0010499999999999997    -7.5E-4                  0                        2.2706126890924554
-0.001                    -7.5E-4                  0                        2.270612689092455
-9.500000000000003E-4     -7.5E-4                  0                        2.270612689092454
-8.999999999999998E-4     -7.5E-4                  0                        2.2706126890924545
-8.500000000000001E-4     -7.5E-4                  0                        2.2706126890924567
-7.999999999999995E-4     -7.5E-4                  0                        2.270612689092455
-7.499999999999998E-4     -7.5E-4                  0                        2.270612689092453
-7.000000000000001E-4     -7.5E-4                  0                        2.270612689092456
-6.499999999999995E-4     -7.5E-4                  0                        2.270612689092447
-5.999999999999998E-4     -7.5E-4                  0                        1.8524377848138902
-5.500000000000001E-4     -7.5E-4                  0                        1.5626523376691948
-4.999999999999996E-4     -7.5E-4                  0                        1.387801937442484
-4.499999999999999E-4     -7.5E-4                  0                        1.2514897547466999
-4.000000000000002E-4     -7.5E-4                  0                        1.1459673240073216
-3.499999999999996E-4     -7.5E-4                  0                        1.0540980191841303
-2.999999999999999E-4     -7.5E-4                  0                        0.9757889798248018
-2.500000000000002E-4     -7.5E-4                  0                        0.907545830743032
-1.9999999999999966E-4    -7.5E-4                  0                        0.8470081403485503
-1.4999999999999996E-4    -7.5E-4                  0                        0.7941642156030337
-1.0000000000000026E-4    -7.5E-4                  0                        0.7467022378808188
-4.99999999999997E-5      -7.5E-4                  0                        0.703903540870931
0                         -7.5E-4                  0                        0.6655506762492127
5.0000000000000565E-5     -7.5E-4                  0                        0.630622962647608
1.0000000000000026E-4     -7.5E-4                  0                        0.598672372100573
1.4999999999999996E-4     -7.5E-4                  0                        0.5694074089231219
2.0000000000000052E-4     -7.5E-4                  0                        0.542693809285076
2.500000000000002E-4      -7.5E-4                  0                        0.5178983155647101
2.999999999999999E-4      -7.5E-4                  0                        0.4949441863097447
3.500000000000005E-4      -7.5E-4                  0                        0.4736505056906708
4.000000000000002E-4      -7.5E-4                  0                        0.4538456970918846
4.499999999999999E-4      -7.5E-4                  0                        0.4354157146334858