% Model:              fine_3d_8electrodes.mph
% Version:            COMSOL 5.3.0.260
% Date:               Apr 27 2020, 13:46
% Dimension:          3
% Nodes:              6633
% Expressions:        1
% Description:        Electric potential
% Length unit:        m
% X                       Y                        Z                        V (V)
-0.005                    -8.0E-4                  0                        0.08833403502612557
-0.00495                  -8.0E-4                  0                        0.08617037939851364
-0.0049                   -8.0E-4                  0                        0.08542452305215785
-0.00485                  -8.0E-4                  0                        0.08528727758272833
-0.0048000000000000004    -8.0E-4                  0                        0.08501743028247201
-0.00475                  -8.0E-4                  0                        0.08482776049737387
-0.0047                   -8.0E-4                  0                        0.08462624824986842
-0.0046500000000000005    -8.0E-4                  0                        0.0844224894843352
-0.0046                   -8.0E-4                  0                        0.0842308832187699
-0.00455                  -8.0E-4                  0                        0.08403566986036617
-0.0045000000000000005    -8.0E-4                  0                        0.08383868731658431
-0.00445                  -8.0E-4                  0                        0.08363877828688997
-0.0044                   -8.0E-4                  0                        0.08343454857806322
-0.00435                  -8.0E-4                  0                        0.08322570805328802
-0.0043                   -8.0E-4                  0                        0.08301131164179928
-0.00425                  -8.0E-4                  0                        0.08279142153970279
-0.0042                   -8.0E-4                  0                        0.08256568345576266
-0.00415                  -8.0E-4                  0                        0.0823340800857153
-0.0041                   -8.0E-4                  0                        0.08209672440826557
-0.00405                  -8.0E-4                  0                        0.08185384153536268
-0.004                    -8.0E-4                  0                        0.08160568403859685
-0.00395                  -8.0E-4                  0                        0.08135225701684112
-0.0039                   -8.0E-4                  0                        0.0810945681957838
-0.00385                  -8.0E-4                  0                        0.08083241637104259
-0.0038                   -8.0E-4                  0                        0.08056595968803437
-0.00375                  -8.0E-4                  0                        0.080296120162601
-0.0037                   -8.0E-4                  0                        0.08002314144591671
-0.00365                  -8.0E-4                  0                        0.07974817297492878
-0.0036                   -8.0E-4                  0                        0.07947141903918686
-0.00355                  -8.0E-4                  0                        0.07919336788566651
-0.0035                   -8.0E-4                  0                        0.078914909927922
-0.00345                  -8.0E-4                  0                        0.07863630120465755
-0.0034000000000000002    -8.0E-4                  0                        0.07835825151435313
-0.00335                  -8.0E-4                  0                        0.078082464499247
-0.0033                   -8.0E-4                  0                        0.0778094846222735
-0.0032500000000000003    -8.0E-4                  0                        0.07753995814264016
-0.0031999999999999997    -8.0E-4                  0                        0.07727447035441941
-0.00315                  -8.0E-4                  0                        0.07701333911692146
-0.0031000000000000003    -8.0E-4                  0                        0.07675922241574279
-0.0030499999999999998    -8.0E-4                  0                        0.07651262101326604
-0.003                    -8.0E-4                  0                        0.07627447527868036
-0.00295                  -8.0E-4                  0                        0.0760456921042165
-0.0029                   -8.0E-4                  0                        0.07582759279456401
-0.00285                  -8.0E-4                  0                        0.07562071166920957
-0.0028                   -8.0E-4                  0                        0.07542586008812574
-0.00275                  -8.0E-4                  0                        0.07524633573938931
-0.0027                   -8.0E-4                  0                        0.07508234312465971
-0.00265                  -8.0E-4                  0                        0.0749351557221791
-0.0026                   -8.0E-4                  0                        0.0748056678526902
-0.00255                  -8.0E-4                  0                        0.07469434204897589
-0.0025                   -8.0E-4                  0                        0.07460465778720793
-0.00245                  -8.0E-4                  0                        0.0745372484134368
-0.0024                   -8.0E-4                  0                        0.0744934253396615
-0.00235                  -8.0E-4                  0                        0.07447474632961337
-0.0023                   -8.0E-4                  0                        0.07448243580005451
-0.00225                  -8.0E-4                  0                        0.074517420519248
-0.0022                   -8.0E-4                  0                        0.07457979840426536
-0.00215                  -8.0E-4                  0                        0.07467539372869253
-0.0021                   -8.0E-4                  0                        0.07480295197604378
-0.00205                  -8.0E-4                  0                        0.07496451152012629
-0.002                    -8.0E-4                  0                        0.07516081946099887
-0.00195                  -8.0E-4                  0                        0.07539218004198156
-0.0018999999999999998    -8.0E-4                  0                        0.07566203825021432
-0.00185                  -8.0E-4                  0                        0.07597233288734237
-0.0018                   -8.0E-4                  0                        0.07632384046881675
-0.0017499999999999998    -8.0E-4                  0                        0.07671878006014192
-0.0017000000000000001    -8.0E-4                  0                        0.07715707895726087
-0.00165                  -8.0E-4                  0                        0.07764055947284032
-0.0015999999999999999    -8.0E-4                  0                        0.07816933702333347
-0.0015499999999999997    -8.0E-4                  0                        0.07874980364806489
-0.0015                   -8.0E-4                  0                        0.07937947366214365
-0.00145                  -8.0E-4                  0                        0.080062081161225
-0.0013999999999999998    -8.0E-4                  0                        0.0807969623914373
-0.00135                  -8.0E-4                  0                        0.08158293531878358
-0.0013                   -8.0E-4                  0                        0.08242858585060821
-0.0012499999999999998    -8.0E-4                  0                        0.08333173895445227
-0.0012000000000000001    -8.0E-4                  0                        0.08429385771630568
-0.00115                  -8.0E-4                  0                        0.08531703572862334
-0.0010999999999999998    -8.0E-4                  0                        0.08640338218670689
-0.0010499999999999997    -8.0E-4                  0                        0.08755316215881806
-0.001                    -8.0E-4                  0                        0.08876639415341969
-9.500000000000003E-4     -8.0E-4                  0                        0.09004930069950384
-8.999999999999998E-4     -8.0E-4                  0                        0.09140171242348262
-8.500000000000001E-4     -8.0E-4                  0                        0.09282487919445645
-7.999999999999995E-4     -8.0E-4                  0                        0.09432047525588691
-7.499999999999998E-4     -8.0E-4                  0                        0.09588878083751481
-7.000000000000001E-4     -8.0E-4                  0                        0.0975347068717379
-6.499999999999995E-4     -8.0E-4                  0                        0.09925940386367346
-5.999999999999998E-4     -8.0E-4                  0                        0.10106399857405697
-5.500000000000001E-4     -8.0E-4                  0                        0.10295109955455332
-4.999999999999996E-4     -8.0E-4                  0                        0.10492293535538558
-4.499999999999999E-4     -8.0E-4                  0                        0.10697990733449032
-4.000000000000002E-4     -8.0E-4                  0                        0.10912118862888588
-3.499999999999996E-4     -8.0E-4                  0                        0.1113585327088902
-2.999999999999999E-4     -8.0E-4                  0                        0.11368752636442171
-2.500000000000002E-4     -8.0E-4                  0                        0.11611331122348378
-1.9999999999999966E-4    -8.0E-4                  0                        0.11863584523352706
-1.4999999999999996E-4    -8.0E-4                  0                        0.12125441620971283
-1.0000000000000026E-4    -8.0E-4                  0                        0.12397609965187432
-4.99999999999997E-5      -8.0E-4                  0                        0.12680485536848263
0                         -8.0E-4                  0                        0.12974122505846275
5.0000000000000565E-5     -8.0E-4                  0                        0.13278920280108777
1.0000000000000026E-4     -8.0E-4                  0                        0.13595025206326983
1.4999999999999996E-4     -8.0E-4                  0                        0.13922593924088003
2.0000000000000052E-4     -8.0E-4                  0                        0.14261478804603314
2.500000000000002E-4      -8.0E-4                  0                        0.14613393390111065
2.999999999999999E-4      -8.0E-4                  0                        0.14977607350121783
3.500000000000005E-4      -8.0E-4                  0                        0.1535487761115507
4.000000000000002E-4      -8.0E-4                  0                        0.1574505960967188
4.499999999999999E-4      -8.0E-4                  0                        0.16148212371350007
5.000000000000004E-4      -8.0E-4                  0                        0.16565570919344472
5.500000000000001E-4      -8.0E-4                  0                        0.16997127327918765
5.999999999999998E-4      -8.0E-4                  0                        0.17443319724655504
6.500000000000004E-4      -8.0E-4                  0                        0.17904148664158342
7.000000000000001E-4      -8.0E-4                  0                        0.18380611638386654
7.499999999999998E-4      -8.0E-4                  0                        0.1887253461602974
8.000000000000004E-4      -8.0E-4                  0                        0.19379628609466698
8.500000000000001E-4      -8.0E-4                  0                        0.19904143465057186
8.999999999999998E-4      -8.0E-4                  0                        0.20445295171826808
9.500000000000003E-4      -8.0E-4                  0                        0.21003938353722929
0.001                     -8.0E-4                  0                        0.2157996374552165
0.0010500000000000006     -8.0E-4                  0                        0.22173498226181887
0.0011000000000000003     -8.0E-4                  0                        0.22786014290565443
0.00115                   -8.0E-4                  0                        0.23417526362610588
0.0012000000000000005     -8.0E-4                  0                        0.2406864259919683
0.0012500000000000002     -8.0E-4                  0                        0.24739858268139336
0.0013                    -8.0E-4                  0                        0.25431480786883764
0.0013500000000000005     -8.0E-4                  0                        0.2614384857563457
0.0014000000000000002     -8.0E-4                  0                        0.2687669277430441
0.00145                   -8.0E-4                  0                        0.2763278234254599
0.0015000000000000005     -8.0E-4                  0                        0.28411220064717435
0.0015500000000000002     -8.0E-4                  0                        0.29213131632149
0.0015999999999999999     -8.0E-4                  0                        0.3003834501785261
0.0016500000000000004     -8.0E-4                  0                        0.3088710778754029
0.0017000000000000001     -8.0E-4                  0                        0.3176154951422407
0.0017499999999999998     -8.0E-4                  0                        0.32661644594013317
0.0018000000000000004     -8.0E-4                  0                        0.3358807250267538
0.00185                   -8.0E-4                  0                        0.3454179184946947
0.0019000000000000006     -8.0E-4                  0                        0.3552331290867191
0.0019500000000000003     -8.0E-4                  0                        0.3653340972472641
0.002                     -8.0E-4                  0                        0.3757230740685928
0.0020500000000000006     -8.0E-4                  0                        0.3864321558513312
0.0021000000000000003     -8.0E-4                  0                        0.39745537588832236
0.00215                   -8.0E-4                  0                        0.40881092099154065
0.0022000000000000006     -8.0E-4                  0                        0.4204988206347881
0.0022500000000000003     -8.0E-4                  0                        0.43251993848908493
0.0023                    -8.0E-4                  0                        0.44492895764282636
0.0023500000000000005     -8.0E-4                  0                        0.4577165835664819
0.0024000000000000002     -8.0E-4                  0                        0.4709051910178223
0.00245                   -8.0E-4                  0                        0.48450979394388005
0.0025000000000000005     -8.0E-4                  0                        0.4985549867548152
0.00255                   -8.0E-4                  0                        0.5130534623856664
0.0026                    -8.0E-4                  0                        0.5280190524088368
0.0026500000000000004     -8.0E-4                  0                        0.5435259487428381
0.0027                    -8.0E-4                  0                        0.5595702455066681
0.00275                   -8.0E-4                  0                        0.5762049111197423
0.0028000000000000004     -8.0E-4                  0                        0.5934458279637858
0.002850000000000001      -8.0E-4                  0                        0.6113127170358166
0.0029000000000000007     -8.0E-4                  0                        0.6299197453334374
0.0029500000000000004     -8.0E-4                  0                        0.6492823098804401
0.003                     -8.0E-4                  0                        0.6694750843677093
0.0030499999999999998     -8.0E-4                  0                        0.6905633969476652
0.0030999999999999995     -8.0E-4                  0                        0.712635790560153
0.003150000000000001      -8.0E-4                  0                        0.7357466603747221
0.0032000000000000006     -8.0E-4                  0                        0.7599384580228046
0.0032500000000000003     -8.0E-4                  0                        0.7855238060123658
0.0033                    -8.0E-4                  0                        0.8125075013715829
0.0033499999999999997     -8.0E-4                  0                        0.8410906061265385
0.003400000000000001      -8.0E-4                  0                        0.8714152928421476
0.003450000000000001      -8.0E-4                  0                        0.9035939708348021
0.0035000000000000005     -8.0E-4                  0                        0.9381435647171523
0.00355                   -8.0E-4                  0                        0.9751244500106371
0.0036                    -8.0E-4                  0                        1.0150128446458468
0.0036499999999999996     -8.0E-4                  0                        1.0581559939367187
0.003700000000000001      -8.0E-4                  0                        1.105186244028483
0.0037500000000000007     -8.0E-4                  0                        1.15661582965214
0.0038000000000000004     -8.0E-4                  0                        1.212699820487678
0.00385                   -8.0E-4                  0                        1.2755989574103368
0.0039                    -8.0E-4                  0                        1.3452975941773342
0.0039499999999999995     -8.0E-4                  0                        1.42464821267137
0.004000000000000001      -8.0E-4                  0                        1.5156248925411977
0.004050000000000001      -8.0E-4                  0                        1.6175058650049268
0.0041                    -8.0E-4                  0                        1.7474700228496216
0.00415                   -8.0E-4                  0                        1.9033393285344287
0.0042                    -8.0E-4                  0                        2.0671974034364
0.004250000000000001      -8.0E-4                  0                        2.281621939929307
0.004300000000000001      -8.0E-4                  0                        2.359670572774632
0.004350000000000001      -8.0E-4                  0                        2.411583111243444
0.0044                    -8.0E-4                  0                        2.430154350380308
0.00445                   -8.0E-4                  0                        2.4428150770549757
0.0045                    -8.0E-4                  0                        2.446698669817867
0.004550000000000001      -8.0E-4                  0                        2.445761427430498
0.004600000000000001      -8.0E-4                  0                        2.4412437163985627
0.0046500000000000005     -8.0E-4                  0                        2.42679924750837
0.0047                    -8.0E-4                  0                        2.395703146215938
0.00475                   -8.0E-4                  0                        2.348873220510208
0.0048                    -8.0E-4                  0                        2.195567315278859
0.004850000000000001      -8.0E-4                  0                        2.0974433465041207
0.004900000000000001      -8.0E-4                  0                        1.9829126451318808
0.00495                   -8.0E-4                  0                        1.8592493929826746
0.005                     -8.0E-4                  0                        1.7451100651472153
-0.005                    -7.5E-4                  0                        0.08618006087346952
-0.00495                  -7.5E-4                  0                        0.08329897495136812
-0.0049                   -7.5E-4                  0                        0.08267068308016584
-0.00485                  -7.5E-4                  0                        0.0826454255777175
-0.0048000000000000004    -7.5E-4                  0                        0.08260783198278168
-0.00475                  -7.5E-4                  0                        0.08255936567562522
-0.0047                   -7.5E-4                  0                        0.08242474768785174
-0.0046500000000000005    -7.5E-4                  0                        0.0822795692381386
-0.0046                   -7.5E-4                  0                        0.0821238766339764
-0.00455                  -7.5E-4                  0                        0.08195822022284512
-0.0045000000000000005    -7.5E-4                  0                        0.08178270233580734
-0.00445                  -7.5E-4                  0                        0.08159746552875437
-0.0044                   -7.5E-4                  0                        0.08140266552936017
-0.00435                  -7.5E-4                  0                        0.08119849504700191
-0.0043                   -7.5E-4                  0                        0.08098571831732125
-0.00425                  -7.5E-4                  0                        0.0807644035912233
-0.0042                   -7.5E-4                  0                        0.080534782491066
-0.00415                  -7.5E-4                  0                        0.08029727538323769
-0.0041                   -7.5E-4                  0                        0.08005233660869068
-0.00405                  -7.5E-4                  0                        0.0798000852119147
-0.004                    -7.5E-4                  0                        0.07954080139572114
-0.00395                  -7.5E-4                  0                        0.07927578585138456
-0.0039                   -7.5E-4                  0                        0.07900517802786411
-0.00385                  -7.5E-4                  0                        0.07872930934417995
-0.0038                   -7.5E-4                  0                        0.07844858084453284
-0.00375                  -7.5E-4                  0                        0.07816311364857932
-0.0037                   -7.5E-4                  0                        0.07787445750570104
-0.00365                  -7.5E-4                  0                        0.07758297874531825
-0.0036                   -7.5E-4                  0                        0.07728942656991537
-0.00355                  -7.5E-4                  0                        0.07699422190313698
-0.0035                   -7.5E-4                  0                        0.07669844023507041
-0.00345                  -7.5E-4                  0                        0.07640225643075942
-0.0034000000000000002    -7.5E-4                  0                        0.07610621590782206
-0.00335                  -7.5E-4                  0                        0.0758126125313912
-0.0033                   -7.5E-4                  0                        0.07552170919726452
-0.0032500000000000003    -7.5E-4                  0                        0.07523428659232755
-0.0031999999999999997    -7.5E-4                  0                        0.07495091321271335
-0.00315                  -7.5E-4                  0                        0.07467198611482166
-0.0031000000000000003    -7.5E-4                  0                        0.07440038216807955
-0.0030499999999999998    -7.5E-4                  0                        0.07413665233703766
-0.003                    -7.5E-4                  0                        0.07388148074228057
-0.00295                  -7.5E-4                  0                        0.07363610147993549
-0.0029                   -7.5E-4                  0                        0.07340194144703789
-0.00285                  -7.5E-4                  0                        0.07317930361218007
-0.0028                   -7.5E-4                  0                        0.07296932005495545
-0.00275                  -7.5E-4                  0                        0.07277550249631794
-0.0027                   -7.5E-4                  0                        0.07259809528202148
-0.00265                  -7.5E-4                  0                        0.07243807431418613
-0.0026                   -7.5E-4                  0                        0.07229647481627872
-0.00255                  -7.5E-4                  0                        0.07217394523223461
-0.0025                   -7.5E-4                  0                        0.07207413720930889
-0.00245                  -7.5E-4                  0                        0.07199762106418761
-0.0024                   -7.5E-4                  0                        0.07194592260794341
-0.00235                  -7.5E-4                  0                        0.07192030587825196
-0.0023                   -7.5E-4                  0                        0.07192236216655463
-0.00225                  -7.5E-4                  0                        0.07195314887449303
-0.0022                   -7.5E-4                  0                        0.07201355503911444
-0.00215                  -7.5E-4                  0                        0.07210749072822252
-0.0021                   -7.5E-4                  0                        0.07223539635523862
-0.00205                  -7.5E-4                  0                        0.07239883064876441
-0.002                    -7.5E-4                  0                        0.07259861385852029
-0.00195                  -7.5E-4                  0                        0.07283528958881562
-0.0018999999999999998    -7.5E-4                  0                        0.07311326753292069
-0.00185                  -7.5E-4                  0                        0.07343345109917061
-0.0018                   -7.5E-4                  0                        0.07379666987029952
-0.0017499999999999998    -7.5E-4                  0                        0.07420456287879965
-0.0017000000000000001    -7.5E-4                  0                        0.07465882924816701
-0.00165                  -7.5E-4                  0                        0.0751606703460244
-0.0015999999999999999    -7.5E-4                  0                        0.07571070196955709
-0.0015499999999999997    -7.5E-4                  0                        0.07631321867796714
-0.0015                   -7.5E-4                  0                        0.07696887786052545
-0.00145                  -7.5E-4                  0                        0.07767870396745175
-0.0013999999999999998    -7.5E-4                  0                        0.07844390607603129
-0.00135                  -7.5E-4                  0                        0.07926478291483516
-0.0013                   -7.5E-4                  0                        0.08014584286144597
-0.0012499999999999998    -7.5E-4                  0                        0.08108819535841143
-0.0012000000000000001    -7.5E-4                  0                        0.08209291926281358
-0.00115                  -7.5E-4                  0                        0.0831617386434043
-0.0010999999999999998    -7.5E-4                  0                        0.08429594574505311
-0.0010499999999999997    -7.5E-4                  0                        0.08549689099872357
-0.001                    -7.5E-4                  0                        0.08676595604504607
-9.500000000000003E-4     -7.5E-4                  0                        0.08810747582246224
-8.999999999999998E-4     -7.5E-4                  0                        0.08952186767623235
-8.500000000000001E-4     -7.5E-4                  0                        0.09101129707466127
-7.999999999999995E-4     -7.5E-4                  0                        0.09257590433629029
-7.499999999999998E-4     -7.5E-4                  0                        0.09421732339477151
-7.000000000000001E-4     -7.5E-4                  0                        0.09594077839139725
-6.499999999999995E-4     -7.5E-4                  0                        0.09774645198465019
-5.999999999999998E-4     -7.5E-4                  0                        0.09963640245894988
-5.500000000000001E-4     -7.5E-4                  0                        0.10161252506070854
-4.999999999999996E-4     -7.5E-4                  0                        0.10367757617787435
-4.499999999999999E-4     -7.5E-4                  0                        0.10583227401914261
-4.000000000000002E-4     -7.5E-4                  0                        0.10807833599713332
-3.499999999999996E-4     -7.5E-4                  0                        0.11042209901955777
-2.999999999999999E-4     -7.5E-4                  0                        0.11286399262204785
-2.500000000000002E-4     -7.5E-4                  0                        0.11540517498805478
-1.9999999999999966E-4    -7.5E-4                  0                        0.11804839940112516
-1.4999999999999996E-4    -7.5E-4                  0                        0.12079425717690348
-1.0000000000000026E-4    -7.5E-4                  0                        0.12365004354728515
-4.99999999999997E-5      -7.5E-4                  0                        0.1266175292436967
0                         -7.5E-4                  0                        0.12969715240552118
5.0000000000000565E-5     -7.5E-4                  0                        0.13289282728568963
1.0000000000000026E-4     -7.5E-4                  0                        0.136208509854299
1.4999999999999996E-4     -7.5E-4                  0                        0.13964488701946692
2.0000000000000052E-4     -7.5E-4                  0                        0.1432038656847921
2.500000000000002E-4      -7.5E-4                  0                        0.14689401544205877
2.999999999999999E-4      -7.5E-4                  0                        0.1507162535025026
3.500000000000005E-4      -7.5E-4                  0                        0.15467343904679706
4.000000000000002E-4      -7.5E-4                  0                        0.15876732082192765