% Model:              fine_3d_8electrodes.mph
% Version:            COMSOL 5.3.0.260
% Date:               Apr 27 2020, 13:37
% Dimension:          3
% Nodes:              6633
% Expressions:        1
% Description:        Electric potential
% Length unit:        m
% X                       Y                        Z                        V (V)
-0.005                    -8.0E-4                  0                        0.2469167173896803
-0.00495                  -8.0E-4                  0                        0.2595551657504072
-0.0049                   -8.0E-4                  0                        0.26402239566723334
-0.00485                  -8.0E-4                  0                        0.26510106162343816
-0.0048000000000000004    -8.0E-4                  0                        0.26702546577883496
-0.00475                  -8.0E-4                  0                        0.26857225702709675
-0.0047                   -8.0E-4                  0                        0.2704729285555078
-0.0046500000000000005    -8.0E-4                  0                        0.2724989080025479
-0.0046                   -8.0E-4                  0                        0.27457304343957345
-0.00455                  -8.0E-4                  0                        0.2767633485352271
-0.0045000000000000005    -8.0E-4                  0                        0.27906111938810924
-0.00445                  -8.0E-4                  0                        0.28147531762665295
-0.0044                   -8.0E-4                  0                        0.28401614464533453
-0.00435                  -8.0E-4                  0                        0.2866868443597131
-0.0043                   -8.0E-4                  0                        0.28950913156633384
-0.00425                  -8.0E-4                  0                        0.29248625286735375
-0.0042                   -8.0E-4                  0                        0.29562535326652606
-0.00415                  -8.0E-4                  0                        0.29893640875132
-0.0041                   -8.0E-4                  0                        0.30243073207763416
-0.00405                  -8.0E-4                  0                        0.30611093457334604
-0.004                    -8.0E-4                  0                        0.3099818308449703
-0.00395                  -8.0E-4                  0                        0.3140779817266391
-0.0039                   -8.0E-4                  0                        0.3183931604399396
-0.00385                  -8.0E-4                  0                        0.3229481676527123
-0.0038                   -8.0E-4                  0                        0.3277458710627467
-0.00375                  -8.0E-4                  0                        0.3327846008372507
-0.0037                   -8.0E-4                  0                        0.33811878478671276
-0.00365                  -8.0E-4                  0                        0.3437470957524992
-0.0036                   -8.0E-4                  0                        0.34968747062614475
-0.00355                  -8.0E-4                  0                        0.35596156509436466
-0.0035                   -8.0E-4                  0                        0.36259802324388857
-0.00345                  -8.0E-4                  0                        0.36960969530185483
-0.0034000000000000002    -8.0E-4                  0                        0.3770059850037353
-0.00335                  -8.0E-4                  0                        0.38486905150460615
-0.0033                   -8.0E-4                  0                        0.3932045883556928
-0.0032500000000000003    -8.0E-4                  0                        0.402060243051675
-0.0031999999999999997    -8.0E-4                  0                        0.4114614165014234
-0.00315                  -8.0E-4                  0                        0.4214292673283713
-0.0031000000000000003    -8.0E-4                  0                        0.4320865403878772
-0.0030499999999999998    -8.0E-4                  0                        0.44345167992049395
-0.003                    -8.0E-4                  0                        0.4556011584964221
-0.00295                  -8.0E-4                  0                        0.4686052274084863
-0.0029                   -8.0E-4                  0                        0.48256571763446154
-0.00285                  -8.0E-4                  0                        0.49754624183393825
-0.0028                   -8.0E-4                  0                        0.5136227263279782
-0.00275                  -8.0E-4                  0                        0.5310791831478748
-0.0027                   -8.0E-4                  0                        0.5499459579250007
-0.00265                  -8.0E-4                  0                        0.5704389187853681
-0.0026                   -8.0E-4                  0                        0.5927147867254697
-0.00255                  -8.0E-4                  0                        0.6168722705803306
-0.0025                   -8.0E-4                  0                        0.6434874993844848
-0.00245                  -8.0E-4                  0                        0.6726515790769494
-0.0024                   -8.0E-4                  0                        0.7049287018674838
-0.00235                  -8.0E-4                  0                        0.740681745090196
-0.0023                   -8.0E-4                  0                        0.7803579606956746
-0.00225                  -8.0E-4                  0                        0.8247912070704635
-0.0022                   -8.0E-4                  0                        0.8742306467265907
-0.00215                  -8.0E-4                  0                        0.9309588270758453
-0.0021                   -8.0E-4                  0                        0.9948763779846435
-0.00205                  -8.0E-4                  0                        1.0687830239070817
-0.002                    -8.0E-4                  0                        1.155527963375058
-0.00195                  -8.0E-4                  0                        1.2563380328228362
-0.0018999999999999998    -8.0E-4                  0                        1.3806284940317979
-0.00185                  -8.0E-4                  0                        1.5361258786356653
-0.0018                   -8.0E-4                  0                        1.6878909801412272
-0.0017499999999999998    -8.0E-4                  0                        1.9219183905289094
-0.0017000000000000001    -8.0E-4                  0                        2.0052720310690457
-0.00165                  -8.0E-4                  0                        2.05554178780244
-0.0015999999999999999    -8.0E-4                  0                        2.0754750772494766
-0.0015499999999999997    -8.0E-4                  0                        2.0890234361498683
-0.0015                   -8.0E-4                  0                        2.090944029919815
-0.00145                  -8.0E-4                  0                        2.08728145891535
-0.0013999999999999998    -8.0E-4                  0                        2.078015530882638
-0.00135                  -8.0E-4                  0                        2.0555920256942617
-0.0013                   -8.0E-4                  0                        2.019070837151809
-0.0012499999999999998    -8.0E-4                  0                        1.9463739053390168
-0.0012000000000000001    -8.0E-4                  0                        1.7389611043590905
-0.00115                  -8.0E-4                  0                        1.5449569194429056
-0.0010999999999999998    -8.0E-4                  0                        1.3784904160075127
-0.0010499999999999997    -8.0E-4                  0                        1.2498033729711957
-0.001                    -8.0E-4                  0                        1.1415328948189836
-9.500000000000003E-4     -8.0E-4                  0                        1.0496238160826028
-8.999999999999998E-4     -8.0E-4                  0                        0.9712047249462806
-8.500000000000001E-4     -8.0E-4                  0                        0.9030803163430658
-7.999999999999995E-4     -8.0E-4                  0                        0.8430527380276827
-7.499999999999998E-4     -8.0E-4                  0                        0.7904239826885149
-7.000000000000001E-4     -8.0E-4                  0                        0.7427609549481229
-6.499999999999995E-4     -8.0E-4                  0                        0.6999294384206314
-5.999999999999998E-4     -8.0E-4                  0                        0.6612873714591501
-5.500000000000001E-4     -8.0E-4                  0                        0.6261856164188008
-4.999999999999996E-4     -8.0E-4                  0                        0.5942146940817614
-4.499999999999999E-4     -8.0E-4                  0                        0.5649120269906905
-4.000000000000002E-4     -8.0E-4                  0                        0.5380592609920639
-3.499999999999996E-4     -8.0E-4                  0                        0.5131555196924277
-2.999999999999999E-4     -8.0E-4                  0                        0.4901244719276226
-2.500000000000002E-4     -8.0E-4                  0                        0.46875168441720366
-1.9999999999999966E-4    -8.0E-4                  0                        0.4488417417554794
-1.4999999999999996E-4    -8.0E-4                  0                        0.4303352029001165
-1.0000000000000026E-4    -8.0E-4                  0                        0.4129639775840259
-4.99999999999997E-5      -8.0E-4                  0                        0.3966727333714236
0                         -8.0E-4                  0                        0.38137349767629025
5.0000000000000565E-5     -8.0E-4                  0                        0.36697369750154857
1.0000000000000026E-4     -8.0E-4                  0                        0.35339497745578075
1.4999999999999996E-4     -8.0E-4                  0                        0.3405660871142351
2.0000000000000052E-4     -8.0E-4                  0                        0.3284507592558167
2.500000000000002E-4      -8.0E-4                  0                        0.31695394859479165
2.999999999999999E-4      -8.0E-4                  0                        0.30604587506272024
3.500000000000005E-4      -8.0E-4                  0                        0.2956892975840868
4.000000000000002E-4      -8.0E-4                  0                        0.28584387966624153
4.499999999999999E-4      -8.0E-4                  0                        0.2764862914705749
5.000000000000004E-4      -8.0E-4                  0                        0.2675585944075886
5.500000000000001E-4      -8.0E-4                  0                        0.2590479030548485
5.999999999999998E-4      -8.0E-4                  0                        0.2509248332880027
6.500000000000004E-4      -8.0E-4                  0                        0.24317216248088966
7.000000000000001E-4      -8.0E-4                  0                        0.23576765794741666
7.499999999999998E-4      -8.0E-4                  0                        0.22868918921847894
8.000000000000004E-4      -8.0E-4                  0                        0.2219199031964816
8.500000000000001E-4      -8.0E-4                  0                        0.2154403451165738
8.999999999999998E-4      -8.0E-4                  0                        0.20923459729257216
9.500000000000003E-4      -8.0E-4                  0                        0.20329295375027048
0.001                     -8.0E-4                  0                        0.19760323439671612
0.0010500000000000006     -8.0E-4                  0                        0.19215431465865848
0.0011000000000000003     -8.0E-4                  0                        0.18692630487116735
0.00115                   -8.0E-4                  0                        0.18191441102978087
0.0012000000000000005     -8.0E-4                  0                        0.17710912704177093
0.0012500000000000002     -8.0E-4                  0                        0.17250520349127557
0.0013                    -8.0E-4                  0                        0.16808972053110044
0.0013500000000000005     -8.0E-4                  0                        0.1638554722257531
0.0014000000000000002     -8.0E-4                  0                        0.15979397222033406
0.00145                   -8.0E-4                  0                        0.15590041964839135
0.0015000000000000005     -8.0E-4                  0                        0.15216406738740926
0.0015500000000000002     -8.0E-4                  0                        0.1485828221984138
0.0015999999999999999     -8.0E-4                  0                        0.14515006363783173
0.0016500000000000004     -8.0E-4                  0                        0.14186066855018054
0.0017000000000000001     -8.0E-4                  0                        0.13870520690390475
0.0017499999999999998     -8.0E-4                  0                        0.13567946289809144
0.0018000000000000004     -8.0E-4                  0                        0.13277937607901394
0.00185                   -8.0E-4                  0                        0.1300016568119329
0.0019000000000000006     -8.0E-4                  0                        0.1273418191420768
0.0019500000000000003     -8.0E-4                  0                        0.12479404241900517
0.002                     -8.0E-4                  0                        0.12235467055766155
0.0020500000000000006     -8.0E-4                  0                        0.12001857971504605
0.0021000000000000003     -8.0E-4                  0                        0.11778064611645667
0.00215                   -8.0E-4                  0                        0.11563917473084398
0.0022000000000000006     -8.0E-4                  0                        0.1135912993250883
0.0022500000000000003     -8.0E-4                  0                        0.11163152756422841
0.0023                    -8.0E-4                  0                        0.10975784903138006
0.0023500000000000005     -8.0E-4                  0                        0.10796486548933104
0.0024000000000000002     -8.0E-4                  0                        0.10625020348360913
0.00245                   -8.0E-4                  0                        0.10461159227676323
0.0025000000000000005     -8.0E-4                  0                        0.10304563321955214
0.00255                   -8.0E-4                  0                        0.10154982538763997
0.0026                    -8.0E-4                  0                        0.10012136800454412
0.0026500000000000004     -8.0E-4                  0                        0.09875708882328252
0.0027                    -8.0E-4                  0                        0.09745284319409894
0.00275                   -8.0E-4                  0                        0.09620814469330186
0.0028000000000000004     -8.0E-4                  0                        0.09502031090705831
0.002850000000000001      -8.0E-4                  0                        0.09388684282428005
0.0029000000000000007     -8.0E-4                  0                        0.09280445364484713
0.0029500000000000004     -8.0E-4                  0                        0.09177162077806596
0.003                     -8.0E-4                  0                        0.09078597267323638
0.0030499999999999998     -8.0E-4                  0                        0.0898460315288242
0.0030999999999999995     -8.0E-4                  0                        0.08894977415639717
0.003150000000000001      -8.0E-4                  0                        0.08809554688640768
0.0032000000000000006     -8.0E-4                  0                        0.0872808072599284
0.0032500000000000003     -8.0E-4                  0                        0.08650449045384924
0.0033                    -8.0E-4                  0                        0.08576386611197998
0.0033499999999999997     -8.0E-4                  0                        0.0850584572691079
0.003400000000000001      -8.0E-4                  0                        0.08438679220617643
0.003450000000000001      -8.0E-4                  0                        0.08374720346633033
0.0035000000000000005     -8.0E-4                  0                        0.08313753961530476
0.00355                   -8.0E-4                  0                        0.08255665803981525
0.0036                    -8.0E-4                  0                        0.0820038101317727
0.0036499999999999996     -8.0E-4                  0                        0.08147775823799597
0.003700000000000001      -8.0E-4                  0                        0.08097727328419076
0.0037500000000000007     -8.0E-4                  0                        0.0805014541176264
0.0038000000000000004     -8.0E-4                  0                        0.08004924967260027
0.00385                   -8.0E-4                  0                        0.07961939570684413
0.0039                    -8.0E-4                  0                        0.07921047385117969
0.0039499999999999995     -8.0E-4                  0                        0.07882231118393533
0.004000000000000001      -8.0E-4                  0                        0.07845413305795422
0.004050000000000001      -8.0E-4                  0                        0.07810441778397115
0.0041                    -8.0E-4                  0                        0.07777312262831929
0.00415                   -8.0E-4                  0                        0.0774587040129802
0.0042                    -8.0E-4                  0                        0.07716059048776179
0.004250000000000001      -8.0E-4                  0                        0.0768788010566462
0.004300000000000001      -8.0E-4                  0                        0.07661189793048556
0.004350000000000001      -8.0E-4                  0                        0.0763598250655803
0.0044                    -8.0E-4                  0                        0.07612079484606245
0.00445                   -8.0E-4                  0                        0.07589569016941602
0.0045                    -8.0E-4                  0                        0.07568191231469273
0.004550000000000001      -8.0E-4                  0                        0.07547981534147404
0.004600000000000001      -8.0E-4                  0                        0.07528929367564803
0.0046500000000000005     -8.0E-4                  0                        0.07510829813109383
0.0047                    -8.0E-4                  0                        0.07493723641495044
0.00475                   -8.0E-4                  0                        0.0747755394549766
0.0048                    -8.0E-4                  0                        0.07463735040698842
0.004850000000000001      -8.0E-4                  0                        0.07448224256090391
0.004900000000000001      -8.0E-4                  0                        0.07416728682714076
0.00495                   -8.0E-4                  0                        0.0736827619282506
0.005                     -8.0E-4                  0                        0.07315306537953649
-0.005                    -7.5E-4                  0                        0.25924589975190404
-0.00495                  -7.5E-4                  0                        0.2759457538841107
-0.0049                   -7.5E-4                  0                        0.27963715160831115
-0.00485                  -7.5E-4                  0                        0.2799430820736785
-0.0048000000000000004    -7.5E-4                  0                        0.2804029897696695
-0.00475                  -7.5E-4                  0                        0.2809986448259097
-0.0047                   -7.5E-4                  0                        0.28265903841397616
-0.0046500000000000005    -7.5E-4                  0                        0.2844572967826253
-0.0046                   -7.5E-4                  0                        0.2863943470043331
-0.00455                  -7.5E-4                  0                        0.28847930885230116
-0.0045000000000000005    -7.5E-4                  0                        0.29071384303307257
-0.00445                  -7.5E-4                  0                        0.29310153581969933
-0.0044                   -7.5E-4                  0                        0.2956452323651645
-0.00435                  -7.5E-4                  0                        0.29834906909496195
-0.0043                   -7.5E-4                  0                        0.3012265591691704
-0.00425                  -7.5E-4                  0                        0.30427825579124257
-0.0042                   -7.5E-4                  0                        0.30750736865881084
-0.00415                  -7.5E-4                  0                        0.3109247057515231
-0.0041                   -7.5E-4                  0                        0.3145400169605833
-0.00405                  -7.5E-4                  0                        0.31835563742463213
-0.004                    -7.5E-4                  0                        0.322378509842086
-0.00395                  -7.5E-4                  0                        0.32663369002462267
-0.0039                   -7.5E-4                  0                        0.3311230472616213
-0.00385                  -7.5E-4                  0                        0.3358585599972645
-0.0038                   -7.5E-4                  0                        0.34085108567561906
-0.00375                  -7.5E-4                  0                        0.3461025116563384
-0.0037                   -7.5E-4                  0                        0.3516483705571085
-0.00365                  -7.5E-4                  0                        0.35749778616724626
-0.0036                   -7.5E-4                  0                        0.3636776072931592
-0.00355                  -7.5E-4                  0                        0.37019738131285135
-0.0035                   -7.5E-4                  0                        0.37708705612498744
-0.00345                  -7.5E-4                  0                        0.38436205834451126
-0.0034000000000000002    -7.5E-4                  0                        0.3920390515649995
-0.00335                  -7.5E-4                  0                        0.4001851993896306
-0.0033                   -7.5E-4                  0                        0.4088095079451859
-0.0032500000000000003    -7.5E-4                  0                        0.41796585938025604
-0.0031999999999999997    -7.5E-4                  0                        0.4276781442482836
-0.00315                  -7.5E-4                  0                        0.43796879914146636
-0.0031000000000000003    -7.5E-4                  0                        0.448964440514761
-0.0030499999999999998    -7.5E-4                  0                        0.4606848844450628
-0.003                    -7.5E-4                  0                        0.47316474294959177
-0.00295                  -7.5E-4                  0                        0.4865101452443761
-0.0029                   -7.5E-4                  0                        0.500853937004523
-0.00285                  -7.5E-4                  0                        0.5162086165182248
-0.0028                   -7.5E-4                  0                        0.5326769333131233
-0.00275                  -7.5E-4                  0                        0.5505390190506149
-0.0027                   -7.5E-4                  0                        0.569808647135585
-0.00265                  -7.5E-4                  0                        0.5907141864691998
-0.0026                   -7.5E-4                  0                        0.6134465895853831
-0.00255                  -7.5E-4                  0                        0.6380400373446918
-0.0025                   -7.5E-4                  0                        0.6650469244655365
-0.00245                  -7.5E-4                  0                        0.6946108292162355
-0.0024                   -7.5E-4                  0                        0.7274612070055829
-0.00235                  -7.5E-4                  0                        0.7637610939538598
-0.0023                   -7.5E-4                  0                        0.8040373630490918
-0.00225                  -7.5E-4                  0                        0.8491843240870901
-0.0022                   -7.5E-4                  0                        0.8993170098021968
-0.00215                  -7.5E-4                  0                        0.9565429030355583
-0.0021                   -7.5E-4                  0                        1.0213486969486667
-0.00205                  -7.5E-4                  0                        1.0972879327976244
-0.002                    -7.5E-4                  0                        1.1858234050392762
-0.00195                  -7.5E-4                  0                        1.286126750953115
-0.0018999999999999998    -7.5E-4                  0                        1.4143067174866832
-0.00185                  -7.5E-4                  0                        1.5761867643994238
-0.0018                   -7.5E-4                  0                        1.8093735813326646
-0.0017499999999999998    -7.5E-4                  0                        2.291300024601079
-0.0017000000000000001    -7.5E-4                  0                        2.291300024601077
-0.00165                  -7.5E-4                  0                        2.2913000246010795
-0.0015999999999999999    -7.5E-4                  0                        2.2913000246010764
-0.0015499999999999997    -7.5E-4                  0                        2.291300024601078
-0.0015                   -7.5E-4                  0                        2.2913000246010795
-0.00145                  -7.5E-4                  0                        2.291300024601076
-0.0013999999999999998    -7.5E-4                  0                        2.2913000246010764
-0.00135                  -7.5E-4                  0                        2.291300024601076
-0.0013                   -7.5E-4                  0                        2.291300024601077
-0.0012499999999999998    -7.5E-4                  0                        2.2913000246010697
-0.0012000000000000001    -7.5E-4                  0                        1.9126781910470971
-0.00115                  -7.5E-4                  0                        1.6202763675703729
-0.0010999999999999998    -7.5E-4                  0                        1.4235734696557913
-0.0010499999999999997    -7.5E-4                  0                        1.276454797921829
-0.001                    -7.5E-4                  0                        1.168614339092181
-9.500000000000003E-4     -7.5E-4                  0                        1.0754780685693293
-8.999999999999998E-4     -7.5E-4                  0                        0.9963781540850529
-8.500000000000001E-4     -7.5E-4                  0                        0.9274078023011523
-7.999999999999995E-4     -7.5E-4                  0                        0.8665780253591846
-7.499999999999998E-4     -7.5E-4                  0                        0.8130162013609401
-7.000000000000001E-4     -7.5E-4                  0                        0.7643712050855982
-6.499999999999995E-4     -7.5E-4                  0                        0.7206839121360252
-5.999999999999998E-4     -7.5E-4                  0                        0.6815768729526781
-5.500000000000001E-4     -7.5E-4                  0                        0.6458978220627348
-4.999999999999996E-4     -7.5E-4                  0                        0.6132896115944478
-4.499999999999999E-4     -7.5E-4                  0                        0.5834104368209149
-4.000000000000002E-4     -7.5E-4                  0                        0.5560308774116568
-3.499999999999996E-4     -7.5E-4                  0                        0.5305577750699347
-2.999999999999999E-4     -7.5E-4                  0                        0.506974630380617
-2.500000000000002E-4     -7.5E-4                  0                        0.48507241293071407
-1.9999999999999966E-4    -7.5E-4                  0                        0.4646345608658357
-1.4999999999999996E-4    -7.5E-4                  0                        0.4456402149934487
-1.0000000000000026E-4    -7.5E-4                  0                        0.4277876391901764
-4.99999999999997E-5      -7.5E-4                  0                        0.4110003685668442
0                         -7.5E-4                  0                        0.39525341631494987
5.0000000000000565E-5     -7.5E-4                  0                        0.38040202859129085
1.0000000000000026E-4     -7.5E-4                  0                        0.36636380501371324
1.4999999999999996E-4     -7.5E-4                  0                        0.3530958605090496
2.0000000000000052E-4     -7.5E-4                  0                        0.34056876531823105
2.500000000000002E-4      -7.5E-4                  0                        0.32865465761623996
2.999999999999999E-4      -7.5E-4                  0                        0.3173396481627227
3.500000000000005E-4      -7.5E-4                  0                        0.30658588711062207
4.000000000000002E-4      -7.5E-4                  0                        0.2963591152677677
4.499999999999999E-4      -7.5E-4                  0                        0.2866321678687154