% Model:              cuff_3d_14electrodes_4mm_nerve.mph
% Version:            COMSOL 5.3.0.260
% Date:               Apr 27 2020, 14:16
% Dimension:          3
% Nodes:              6561
% Expressions:        1
% Description:        Electric potential
% Length unit:        m
% X                       Y                        Z                        V (V)
-0.00201                  -0.00201                 0                        0.009645367845215056
-0.00196                  -0.00201                 0                        0.010046970748134864
-0.00191                  -0.00201                 0                        0.010461263850027193
-0.00186                  -0.00201                 0                        0.010889534746170958
-0.00181                  -0.00201                 0                        0.011338107718381675
-0.00176                  -0.00201                 0                        0.011805160950946612
-0.0017100000000000001    -0.00201                 0                        0.012288460773870262
-0.00166                  -0.00201                 0                        0.012788650439272036
-0.00161                  -0.00201                 0                        0.01330610160388373
-0.00156                  -0.00201                 0                        0.013845183812368878
-0.00151                  -0.00201                 0                        0.014407824438953772
-0.00146                  -0.00201                 0                        0.014992639367332885
-0.00141                  -0.00201                 0                        0.015601694235860004
-0.00136                  -0.00201                 0                        0.0162327045718108
-0.00131                  -0.00201                 0                        0.01688676264467986
-0.00126                  -0.00201                 0                        0.01755936968340511
-0.0012100000000000001    -0.00201                 0                        0.018239740251177947
-0.00116                  -0.00201                 0                        0.018937843115344626
-0.0011099999999999999    -0.00201                 0                        0.019647772623742468
-0.0010600000000000002    -0.00201                 0                        0.020377619345718575
-0.00101                  -0.00201                 0                        0.021127936289741654
-9.599999999999999E-4     -0.00201                 0                        0.021902696902155593
-9.1E-4                   -0.00201                 0                        0.022718985452094956
-8.600000000000001E-4     -0.00201                 0                        0.02357798794432787
-8.1E-4                   -0.00201                 0                        0.02449447600286011
-7.6E-4                   -0.00201                 0                        0.02546012632154223
-7.099999999999999E-4     -0.00201                 0                        0.02649588069091252
-6.6E-4                   -0.00201                 0                        0.028660311983399904
-6.100000000000001E-4     -0.00201                 0                        0.03166978565657867
-5.6E-4                   -0.00201                 0                        0.034619065058311985
-5.1E-4                   -0.00201                 0                        0.03751424194869997
-4.599999999999999E-4     -0.00201                 0                        0.04028285463360977
-4.1E-4                   -0.00201                 0                        0.04225840851780703
-3.600000000000001E-4     -0.00201                 0                        0.04501366101698054
-3.0999999999999995E-4    -0.00201                 0                        0.04998961065067431
-2.6000000000000003E-4    -0.00201                 0                        0.054515246780305934
-2.099999999999999E-4     -0.00201                 0                        0.05873645749014109
-1.5999999999999999E-4    -0.00201                 0                        0.0629336964976887
-1.1000000000000007E-4    -0.00201                 0                        0.06706206405985161
-5.999999999999994E-5     -0.00201                 0                        0.07125834387023429
-1.0000000000000026E-5    -0.00201                 0                        0.0753933237758293
4.0000000000000105E-5     -0.00201                 0                        0.07949309277670957
9.000000000000024E-5      -0.00201                 0                        0.08350599704838745
1.3999999999999993E-4     -0.00201                 0                        0.08760929635097173
1.9000000000000006E-4     -0.00201                 0                        0.09149091864889766
2.400000000000002E-4      -0.00201                 0                        0.09504971834038689
2.899999999999999E-4      -0.00201                 0                        0.09817161703858313
3.4E-4                    -0.00201                 0                        0.10045763886443074
3.9000000000000016E-4     -0.00201                 0                        0.10239396869496394
4.3999999999999985E-4     -0.00201                 0                        0.10561129499917299
4.9E-4                    -0.00201                 0                        0.11269008524557436
5.400000000000001E-4      -0.00201                 0                        0.11646909853408388
5.900000000000002E-4      -0.00201                 0                        0.11825938303973771
6.399999999999999E-4      -0.00201                 0                        0.11816709454866414
6.900000000000001E-4      -0.00201                 0                        0.11606815203325727
7.400000000000002E-4      -0.00201                 0                        0.12359184003200148
7.899999999999999E-4      -0.00201                 0                        0.13148338132831977
8.4E-4                    -0.00201                 0                        0.13986680994026873
8.900000000000002E-4      -0.00201                 0                        0.1488842783653046
9.399999999999999E-4      -0.00201                 0                        0.15825033912864528
9.9E-4                    -0.00201                 0                        0.1672581993810355
0.0010400000000000001     -0.00201                 0                        0.1758157318978056
0.0010900000000000003     -0.00201                 0                        0.18367447705641177
0.00114                   -0.00201                 0                        0.190119869091462
0.00119                   -0.00201                 0                        0.19366033881086386
0.0012400000000000002     -0.00201                 0                        0.19487128551054883
0.00129                   -0.00201                 0                        0.19420972726252025
0.00134                   -0.00201                 0                        0.19214594730118895
0.0013900000000000002     -0.00201                 0                        0.1887219597687121
0.0014400000000000003     -0.00201                 0                        0.1843509295206282
0.00149                   -0.00201                 0                        0.17939294973747866
0.0015400000000000001     -0.00201                 0                        0.17403624634861448
0.0015900000000000003     -0.00201                 0                        0.1685974850401418
0.00164                   -0.00201                 0                        0.1631054048415828
0.00169                   -0.00201                 0                        0.1574312347376613
0.0017400000000000002     -0.00201                 0                        0.15151556293150817
0.00179                   -0.00201                 0                        0.14561820463225064
0.00184                   -0.00201                 0                        0.13973356588888028
0.0018900000000000002     -0.00201                 0                        0.1338238171417255
0.0019400000000000003     -0.00201                 0                        0.12797474581665313
0.00199                   -0.00201                 0                        0.1223037953037585
-0.00201                  -0.00196                 0                        0.009732901672402646
-0.00196                  -0.00196                 0                        0.010135612565404373
-0.00191                  -0.00196                 0                        0.010551020206082208
-0.00186                  -0.00196                 0                        0.01098356541417652
-0.00181                  -0.00196                 0                        0.01143246444554179
-0.00176                  -0.00196                 0                        0.011897717175762174
-0.0017100000000000001    -0.00196                 0                        0.012379323604837678
-0.00166                  -0.00196                 0                        0.012879247126751227
-0.00161                  -0.00196                 0                        0.013396786797991004
-0.00156                  -0.00196                 0                        0.013934678897907567
-0.00151                  -0.00196                 0                        0.014497761128205812
-0.00146                  -0.00196                 0                        0.015082723150659155
-0.00141                  -0.00196                 0                        0.015691927401787778
-0.00136                  -0.00196                 0                        0.016321604729374863
-0.00131                  -0.00196                 0                        0.01697533010585013
-0.00126                  -0.00196                 0                        0.017645572715194124
-0.0012100000000000001    -0.00196                 0                        0.018319900529115096
-0.00116                  -0.00196                 0                        0.018992138802612184
-0.0011099999999999999    -0.00196                 0                        0.019667167575449562
-0.0010600000000000002    -0.00196                 0                        0.020346309488908917
-0.00101                  -0.00196                 0                        0.021036121392347597
-9.599999999999999E-4     -0.00196                 0                        0.02175201888435697
-9.1E-4                   -0.00196                 0                        0.022522512446322362
-8.600000000000001E-4     -0.00196                 0                        0.023340621689363437
-8.1E-4                   -0.00196                 0                        0.02462300757247405
-7.6E-4                   -0.00196                 0                        0.02754102158452803
-7.099999999999999E-4     -0.00196                 0                        0.030587359864287032
-6.6E-4                   -0.00196                 0                        0.03373669239331185
-6.100000000000001E-4     -0.00196                 0                        0.03695537202453017
-5.6E-4                   -0.00196                 0                        0.04009249179965914
-5.1E-4                   -0.00196                 0                        0.043032843424816995
-4.599999999999999E-4     -0.00196                 0                        0.04543174743002823
-4.1E-4                   -0.00196                 0                        0.046143090239427656
-3.600000000000001E-4     -0.00196                 0                        0.04944641228198021
-3.0999999999999995E-4    -0.00196                 0                        0.054654116573019385
-2.6000000000000003E-4    -0.00196                 0                        0.058475693289076404
-2.099999999999999E-4     -0.00196                 0                        0.062158562890020766
-1.5999999999999999E-4    -0.00196                 0                        0.06585443770390907
-1.1000000000000007E-4    -0.00196                 0                        0.0696553022875469
-5.999999999999994E-5     -0.00196                 0                        0.07367433230787529
-1.0000000000000026E-5    -0.00196                 0                        0.07786532498272183
4.0000000000000105E-5     -0.00196                 0                        0.08229889160567422
9.000000000000024E-5      -0.00196                 0                        0.08699699611941965
1.3999999999999993E-4     -0.00196                 0                        0.09201657843655353
1.9000000000000006E-4     -0.00196                 0                        0.09727795356067309
2.400000000000002E-4      -0.00196                 0                        0.10265449435235209
2.899999999999999E-4      -0.00196                 0                        0.10770142454644181
3.4E-4                    -0.00196                 0                        0.11178805217719075
3.9000000000000016E-4     -0.00196                 0                        0.11231529308385735
4.3999999999999985E-4     -0.00196                 0                        0.12484339304969448
4.9E-4                    -0.00196                 0                        0.1352862057616989
5.400000000000001E-4      -0.00196                 0                        0.1421766207615498
5.900000000000002E-4      -0.00196                 0                        0.1471767978381803
6.399999999999999E-4      -0.00196                 0                        0.1500097233083582
6.900000000000001E-4      -0.00196                 0                        0.15116838559985618
7.400000000000002E-4      -0.00196                 0                        0.15026738876144013
7.899999999999999E-4      -0.00196                 0                        0.1459967785861212
8.4E-4                    -0.00196                 0                        0.14494770238796978
8.900000000000002E-4      -0.00196                 0                        0.15527494011790577
9.399999999999999E-4      -0.00196                 0                        0.1663049215209527
9.9E-4                    -0.00196                 0                        0.17743502774391795
0.0010400000000000001     -0.00196                 0                        0.1888232456875453
0.0010900000000000003     -0.00196                 0                        0.1990825924258246
0.00114                   -0.00196                 0                        0.20788844926779154
0.00119                   -0.00196                 0                        0.21182872734803035
0.0012400000000000002     -0.00196                 0                        0.2128792767826949
0.00129                   -0.00196                 0                        0.2118338714119353
0.00134                   -0.00196                 0                        0.20826484711841256
0.0013900000000000002     -0.00196                 0                        0.20343984914505256
0.0014400000000000003     -0.00196                 0                        0.19803898948947835
0.00149                   -0.00196                 0                        0.19209659125157705
0.0015400000000000001     -0.00196                 0                        0.18585638960497944
0.0015900000000000003     -0.00196                 0                        0.1796220436905353
0.00164                   -0.00196                 0                        0.1733133697596725
0.00169                   -0.00196                 0                        0.1669376526449259
0.0017400000000000002     -0.00196                 0                        0.16042239553464163
0.00179                   -0.00196                 0                        0.15382494054908652
0.00184                   -0.00196                 0                        0.1472614509491888
0.0018900000000000002     -0.00196                 0                        0.1407539223792571
0.0019400000000000003     -0.00196                 0                        0.13432918201421076
0.00199                   -0.00196                 0                        0.1281067775644179
-0.00201                  -0.00191                 0                        0.009809823586344916
-0.00196                  -0.00191                 0                        0.010214026794218265
-0.00191                  -0.00191                 0                        0.010631568608461098
-0.00186                  -0.00191                 0                        0.011062452551407118
-0.00181                  -0.00191                 0                        0.011508813655343678
-0.00176                  -0.00191                 0                        0.01197217766203532
-0.0017100000000000001    -0.00191                 0                        0.012452077034542533
-0.00166                  -0.00191                 0                        0.012949045230704564
-0.00161                  -0.00191                 0                        0.013466590130202204
-0.00156                  -0.00191                 0                        0.014005215990705432
-0.00151                  -0.00191                 0                        0.014563484696320877
-0.00146                  -0.00191                 0                        0.015146478325077362
-0.00141                  -0.00191                 0                        0.015749176614881594
-0.00136                  -0.00191                 0                        0.01637692963915278
-0.00131                  -0.00191                 0                        0.017027954112404306
-0.00126                  -0.00191                 0                        0.017694677792607603
-0.0012100000000000001    -0.00191                 0                        0.018367614253374413
-0.00116                  -0.00191                 0                        0.01901194749239752
-0.0011099999999999999    -0.00191                 0                        0.019615015292762134
-0.0010600000000000002    -0.00191                 0                        0.020226776378595917
-0.00101                  -0.00191                 0                        0.020855766369108887
-9.599999999999999E-4     -0.00191                 0                        0.021507761289168415
-9.1E-4                   -0.00191                 0                        0.023098848980517762
-8.600000000000001E-4     -0.00191                 0                        0.0259972409806057
-8.1E-4                   -0.00191                 0                        0.02905714064339243
-7.6E-4                   -0.00191                 0                        0.032269992264624424
-7.099999999999999E-4     -0.00191                 0                        0.035606746160668855
-6.6E-4                   -0.00191                 0                        0.03900861405680871
-6.100000000000001E-4     -0.00191                 0                        0.04238314257523297
-5.6E-4                   -0.00191                 0                        0.04447511166242151
-5.1E-4                   -0.00191                 0                        0.04592363447755881
-4.599999999999999E-4     -0.00191                 0                        0.04721024466536834
-4.1E-4                   -0.00191                 0                        0.04864735744840738
-3.600000000000001E-4     -0.00191                 0                        0.05125896026489013
-3.0999999999999995E-4    -0.00191                 0                        0.05486506642894503
-2.6000000000000003E-4    -0.00191                 0                        0.058567078975158185
-2.099999999999999E-4     -0.00191                 0                        0.06231616790215072
-1.5999999999999999E-4    -0.00191                 0                        0.06606711051359351
-1.1000000000000007E-4    -0.00191                 0                        0.06995082293010184
-5.999999999999994E-5     -0.00191                 0                        0.07410389890020028
-1.0000000000000026E-5    -0.00191                 0                        0.078449882140068
4.0000000000000105E-5     -0.00191                 0                        0.08300956037874016
9.000000000000024E-5      -0.00191                 0                        0.08788502390449762
1.3999999999999993E-4     -0.00191                 0                        0.0930892974187895
1.9000000000000006E-4     -0.00191                 0                        0.09854806708550552
2.400000000000002E-4      -0.00191                 0                        0.10419491092484626
2.899999999999999E-4      -0.00191                 0                        0.10980379587751139
3.4E-4                    -0.00191                 0                        0.11594811162845098
3.9000000000000016E-4     -0.00191                 0                        0.12263291415728834
4.3999999999999985E-4     -0.00191                 0                        0.13471800669975523
4.9E-4                    -0.00191                 0                        0.14839398529069753
5.400000000000001E-4      -0.00191                 0                        0.16314875661263245
5.900000000000002E-4      -0.00191                 0                        0.17877349134701243
6.399999999999999E-4      -0.00191                 0                        0.18578295385307608
6.900000000000001E-4      -0.00191                 0                        0.19112826584550496
7.400000000000002E-4      -0.00191                 0                        0.1943483856572823
7.899999999999999E-4      -0.00191                 0                        0.19474340694532657
8.4E-4                    -0.00191                 0                        0.1914346824850351
8.900000000000002E-4      -0.00191                 0                        0.18391436002717432
9.399999999999999E-4      -0.00191                 0                        0.17356297668771045
9.9E-4                    -0.00191                 0                        0.18720207833864796
0.0010400000000000001     -0.00191                 0                        0.20176844226782747
0.0010900000000000003     -0.00191                 0                        0.21613106105331203
0.00114                   -0.00191                 0                        0.22841834167823033
0.00119                   -0.00191                 0                        0.23390346853363747
0.0012400000000000002     -0.00191                 0                        0.2345155953762672
0.00129                   -0.00191                 0                        0.23170226990424903
0.00134                   -0.00191                 0                        0.2249826615797733
0.0013900000000000002     -0.00191                 0                        0.21899813793814193
0.0014400000000000003     -0.00191                 0                        0.21247685127763655
0.00149                   -0.00191                 0                        0.20547027940713744
0.0015400000000000001     -0.00191                 0                        0.19848646363534483
0.0015900000000000003     -0.00191                 0                        0.19133953944018486
0.00164                   -0.00191                 0                        0.18411616868119615
0.00169                   -0.00191                 0                        0.17656291008632305
0.0017400000000000002     -0.00191                 0                        0.16938398464130286
0.00179                   -0.00191                 0                        0.16217570454351418
0.00184                   -0.00191                 0                        0.15500907925068896
0.0018900000000000002     -0.00191                 0                        0.14788410876282737
0.0019400000000000003     -0.00191                 0                        0.14084859776488012
0.00199                   -0.00191                 0                        0.13402148585553386
-0.00201                  -0.00186                 0                        0.009876786533112948
-0.00196                  -0.00186                 0                        0.010280471356258675
-0.00191                  -0.00186                 0                        0.01069839568486737
-0.00186                  -0.00186                 0                        0.011126898603381433
-0.00181                  -0.00186                 0                        0.011569811479820257
-0.00176                  -0.00186                 0                        0.01202972725901416
-0.0017100000000000001    -0.00186                 0                        0.012506645940963141
-0.00166                  -0.00186                 0                        0.013000567525667212
-0.00161                  -0.00186                 0                        0.013516058061501437
-0.00156                  -0.00186                 0                        0.014046200634025825
-0.00151                  -0.00186                 0                        0.014597583875833594
-0.00146                  -0.00186                 0                        0.015168945792934669
-0.00141                  -0.00186                 0                        0.015763291298180594
-0.00136                  -0.00186                 0                        0.016384946201495994
-0.00131                  -0.00186                 0                        0.017045944323412447
-0.00126                  -0.00186                 0                        0.017732656375201602
-0.0012100000000000001    -0.00186                 0                        0.018405310138292722
-0.00116                  -0.00186                 0                        0.019030355759868257
-0.0011099999999999999    -0.00186                 0                        0.019531516651500755
-0.0010600000000000002    -0.00186                 0                        0.02004706710840987
-0.00101                  -0.00186                 0                        0.02131560411688001
-9.599999999999999E-4     -0.00186                 0                        0.024092122065967763
-9.1E-4                   -0.00186                 0                        0.027059016816439425
-8.600000000000001E-4     -0.00186                 0                        0.030275698349681572
-8.1E-4                   -0.00186                 0                        0.033653154679071116
-7.6E-4                   -0.00186                 0                        0.037162151669375434
-7.099999999999999E-4     -0.00186                 0                        0.03966853292295349
-6.6E-4                   -0.00186                 0                        0.04114685438325208
-6.100000000000001E-4     -0.00186                 0                        0.04270692052731163
-5.6E-4                   -0.00186                 0                        0.04432231789614939
-5.1E-4                   -0.00186                 0                        0.046019980612238054
-4.599999999999999E-4     -0.00186                 0                        0.047819143810532413
-4.1E-4                   -0.00186                 0                        0.04997609240598336
-3.600000000000001E-4     -0.00186                 0                        0.052626868545414096
-3.0999999999999995E-4    -0.00186                 0                        0.055740393465287114
-2.6000000000000003E-4    -0.00186                 0                        0.059209488618054515
-2.099999999999999E-4     -0.00186                 0                        0.06288439706003272
-1.5999999999999999E-4    -0.00186                 0                        0.0667054568813211
-1.1000000000000007E-4    -0.00186                 0                        0.07064759349557544
-5.999999999999994E-5     -0.00186                 0                        0.07490124940988024
-1.0000000000000026E-5    -0.00186                 0                        0.07939844057094628
4.0000000000000105E-5     -0.00186                 0                        0.0841500942791116
9.000000000000024E-5      -0.00186                 0                        0.08923148027880684
1.3999999999999993E-4     -0.00186                 0                        0.09464797188859096
1.9000000000000006E-4     -0.00186                 0                        0.10042792601995143
2.400000000000002E-4      -0.00186                 0                        0.10656017897544504
2.899999999999999E-4      -0.00186                 0                        0.11309962733555808
3.4E-4                    -0.00186                 0                        0.12070476803986674
3.9000000000000016E-4     -0.00186                 0                        0.12946911011185894
4.3999999999999985E-4     -0.00186                 0                        0.14024611003149123
4.9E-4                    -0.00186                 0                        0.15346926018223156
5.400000000000001E-4      -0.00186                 0                        0.1681848602071746
5.900000000000002E-4      -0.00186                 0                        0.1842221358222654
6.399999999999999E-4      -0.00186                 0                        0.20215149010309644
6.900000000000001E-4      -0.00186                 0                        0.2225381809534594
7.400000000000002E-4      -0.00186                 0                        0.24373242405101836
7.899999999999999E-4      -0.00186                 0                        0.24974261818737023
8.4E-4                    -0.00186                 0                        0.25332585216073716
8.900000000000002E-4      -0.00186                 0                        0.2531342853647535
9.399999999999999E-4      -0.00186                 0                        0.2485576465503615
9.9E-4                    -0.00186                 0                        0.23303570737890147
0.0010400000000000001     -0.00186                 0                        0.21419494150779667
0.0010900000000000003     -0.00186                 0                        0.2344047481701631
0.00114                   -0.00186                 0                        0.2568946807801423
0.00119                   -0.00186                 0                        0.26383017866317326