% Model:              cuff_3d_14electrodes_4mm_nerve.mph
% Version:            COMSOL 5.3.0.260
% Date:               Apr 27 2020, 14:10
% Dimension:          3
% Nodes:              6561
% Expressions:        1
% Description:        Electric potential
% Length unit:        m
% X                       Y                        Z                        V (V)
-0.00201                  -0.00201                 0                        0.0036153510147831705
-0.00196                  -0.00201                 0                        0.003697982637923168
-0.00191                  -0.00201                 0                        0.003779737227816452
-0.00186                  -0.00201                 0                        0.003860147759890914
-0.00181                  -0.00201                 0                        0.0039399555290117174
-0.00176                  -0.00201                 0                        0.004018760888398497
-0.0017100000000000001    -0.00201                 0                        0.0040957843426145495
-0.00166                  -0.00201                 0                        0.004171455379966792
-0.00161                  -0.00201                 0                        0.004245871585795498
-0.00156                  -0.00201                 0                        0.004318862661303263
-0.00151                  -0.00201                 0                        0.0043907186167869185
-0.00146                  -0.00201                 0                        0.0044609711722585895
-0.00141                  -0.00201                 0                        0.004530022856297362
-0.00136                  -0.00201                 0                        0.004596537368444869
-0.00131                  -0.00201                 0                        0.004660723916746014
-0.00126                  -0.00201                 0                        0.004719817773893855
-0.0012100000000000001    -0.00201                 0                        0.004768665243480819
-0.00116                  -0.00201                 0                        0.004810687815065552
-0.0011099999999999999    -0.00201                 0                        0.00484352215043171
-0.0010600000000000002    -0.00201                 0                        0.0048687170792622685
-0.00101                  -0.00201                 0                        0.004886445789401896
-9.599999999999999E-4     -0.00201                 0                        0.004898004172069995
-9.1E-4                   -0.00201                 0                        0.004907771076699907
-8.600000000000001E-4     -0.00201                 0                        0.004916321536797813
-8.1E-4                   -0.00201                 0                        0.004927031533358415
-7.6E-4                   -0.00201                 0                        0.004936697214948469
-7.099999999999999E-4     -0.00201                 0                        0.004948577021325873
-6.6E-4                   -0.00201                 0                        0.005256213863988576
-6.100000000000001E-4     -0.00201                 0                        0.005754889735163191
-5.6E-4                   -0.00201                 0                        0.006185509031237995
-5.1E-4                   -0.00201                 0                        0.006544201803543014
-4.599999999999999E-4     -0.00201                 0                        0.006801837726554373
-4.1E-4                   -0.00201                 0                        0.006849671991245606
-3.600000000000001E-4     -0.00201                 0                        0.007232948775087011
-3.0999999999999995E-4    -0.00201                 0                        0.0077818184034264964
-2.6000000000000003E-4    -0.00201                 0                        0.008228501369709929
-2.099999999999999E-4     -0.00201                 0                        0.008566994134949608
-1.5999999999999999E-4    -0.00201                 0                        0.0088368079015426
-1.1000000000000007E-4    -0.00201                 0                        0.009046604658248324
-5.999999999999994E-5     -0.00201                 0                        0.009210388281095416
-1.0000000000000026E-5    -0.00201                 0                        0.009309041791037703
4.0000000000000105E-5     -0.00201                 0                        0.00935663784117097
9.000000000000024E-5      -0.00201                 0                        0.009336273218084112
1.3999999999999993E-4     -0.00201                 0                        0.009279728248714236
1.9000000000000006E-4     -0.00201                 0                        0.009155730571542012
2.400000000000002E-4      -0.00201                 0                        0.008951087023776297
2.899999999999999E-4      -0.00201                 0                        0.00865206204771103
3.4E-4                    -0.00201                 0                        0.008216312791298773
3.9000000000000016E-4     -0.00201                 0                        0.007797574758275122
4.3999999999999985E-4     -0.00201                 0                        0.007744126237963839
4.9E-4                    -0.00201                 0                        0.007689677848402233
5.400000000000001E-4      -0.00201                 0                        0.007444679232325391
5.900000000000002E-4      -0.00201                 0                        0.007063626561360246
6.399999999999999E-4      -0.00201                 0                        0.006626621683350513
6.900000000000001E-4      -0.00201                 0                        0.006142358719482543
7.400000000000002E-4      -0.00201                 0                        0.006212343229630317
7.899999999999999E-4      -0.00201                 0                        0.006284631892128933
8.4E-4                    -0.00201                 0                        0.006362140986459978
8.900000000000002E-4      -0.00201                 0                        0.0064430944300036715
9.399999999999999E-4      -0.00201                 0                        0.006519856991200606
9.9E-4                    -0.00201                 0                        0.006587788274094129
0.0010400000000000001     -0.00201                 0                        0.006647988204179426
0.0010900000000000003     -0.00201                 0                        0.0067033463682657736
0.00114                   -0.00201                 0                        0.006748473920465652
0.00119                   -0.00201                 0                        0.006776455018331387
0.0012400000000000002     -0.00201                 0                        0.006791037294338918
0.00129                   -0.00201                 0                        0.006793219227044595
0.00134                   -0.00201                 0                        0.0067852287821428174
0.0013900000000000002     -0.00201                 0                        0.006768789779772301
0.0014400000000000003     -0.00201                 0                        0.006746394581767623
0.00149                   -0.00201                 0                        0.00671711070358606
0.0015400000000000001     -0.00201                 0                        0.006683041417327278
0.0015900000000000003     -0.00201                 0                        0.006644548727601729
0.00164                   -0.00201                 0                        0.00660068351897491
0.00169                   -0.00201                 0                        0.006551369877278063
0.0017400000000000002     -0.00201                 0                        0.006497548624370738
0.00179                   -0.00201                 0                        0.006436770573469136
0.00184                   -0.00201                 0                        0.006370317873037307
0.0018900000000000002     -0.00201                 0                        0.006299142116659182
0.0019400000000000003     -0.00201                 0                        0.006223627472543238
0.00199                   -0.00201                 0                        0.006141899438958753
-0.00201                  -0.00196                 0                        0.0037262333228032653
-0.00196                  -0.00196                 0                        0.0038109420751434825
-0.00191                  -0.00196                 0                        0.003894751455507996
-0.00186                  -0.00196                 0                        0.003978000651714336
-0.00181                  -0.00196                 0                        0.004059417723941151
-0.00176                  -0.00196                 0                        0.0041390033617357685
-0.0017100000000000001    -0.00196                 0                        0.004216757565098191
-0.00166                  -0.00196                 0                        0.004293308272745928
-0.00161                  -0.00196                 0                        0.004368691499784886
-0.00156                  -0.00196                 0                        0.004442207278047377
-0.00151                  -0.00196                 0                        0.004515379939168798
-0.00146                  -0.00196                 0                        0.004586625027374305
-0.00141                  -0.00196                 0                        0.00465685136867145
-0.00136                  -0.00196                 0                        0.004724124882551343
-0.00131                  -0.00196                 0                        0.0047897249444941795
-0.00126                  -0.00196                 0                        0.0048500109531924894
-0.0012100000000000001    -0.00196                 0                        0.004898403459342419
-0.00116                  -0.00196                 0                        0.004932993291684458
-0.0011099999999999999    -0.00196                 0                        0.0049547013703943685
-0.0010600000000000002    -0.00196                 0                        0.004963465884593315
-0.00101                  -0.00196                 0                        0.004961488218595309
-9.599999999999999E-4     -0.00196                 0                        0.004954901342165785
-9.1E-4                   -0.00196                 0                        0.004952029674756251
-8.600000000000001E-4     -0.00196                 0                        0.004949440066379773
-8.1E-4                   -0.00196                 0                        0.0050740670096588595
-7.6E-4                   -0.00196                 0                        0.005661414350175317
-7.099999999999999E-4     -0.00196                 0                        0.006238107266734976
-6.6E-4                   -0.00196                 0                        0.006789347161165457
-6.100000000000001E-4     -0.00196                 0                        0.0073058660079368285
-5.6E-4                   -0.00196                 0                        0.007746027102694666
-5.1E-4                   -0.00196                 0                        0.008075552772743131
-4.599999999999999E-4     -0.00196                 0                        0.008203874708281883
-4.1E-4                   -0.00196                 0                        0.007851137924821817
-3.600000000000001E-4     -0.00196                 0                        0.008251935340144864
-3.0999999999999995E-4    -0.00196                 0                        0.008856092305433924
-2.6000000000000003E-4    -0.00196                 0                        0.009123616678764964
-2.099999999999999E-4     -0.00196                 0                        0.009313470055646896
-1.5999999999999999E-4    -0.00196                 0                        0.009454275917523923
-1.1000000000000007E-4    -0.00196                 0                        0.009569017191829765
-5.999999999999994E-5     -0.00196                 0                        0.0096647486700318
-1.0000000000000026E-5    -0.00196                 0                        0.009739652389241684
4.0000000000000105E-5     -0.00196                 0                        0.00980135553959716
9.000000000000024E-5      -0.00196                 0                        0.009847309265133792
1.3999999999999993E-4     -0.00196                 0                        0.00987798266012074
1.9000000000000006E-4     -0.00196                 0                        0.009886474659952914
2.400000000000002E-4      -0.00196                 0                        0.009848524885544595
2.899999999999999E-4      -0.00196                 0                        0.009716364530221592
3.4E-4                    -0.00196                 0                        0.009403795082180302
3.9000000000000016E-4     -0.00196                 0                        0.008766409537916653
4.3999999999999985E-4     -0.00196                 0                        0.0092609271347541
4.9E-4                    -0.00196                 0                        0.00938189653858179
5.400000000000001E-4      -0.00196                 0                        0.009200035927497957
5.900000000000002E-4      -0.00196                 0                        0.008859019818958001
6.399999999999999E-4      -0.00196                 0                        0.008430495985906351
6.900000000000001E-4      -0.00196                 0                        0.007935592690730985
7.400000000000002E-4      -0.00196                 0                        0.0073749646863781534
7.899999999999999E-4      -0.00196                 0                        0.006779067613015497
8.4E-4                    -0.00196                 0                        0.006430961412028911
8.900000000000002E-4      -0.00196                 0                        0.006529568854270406
9.399999999999999E-4      -0.00196                 0                        0.006627976363546426
9.9E-4                    -0.00196                 0                        0.006720789769923591
0.0010400000000000001     -0.00196                 0                        0.006808239894288707
0.0010900000000000003     -0.00196                 0                        0.00688532967820878
0.00114                   -0.00196                 0                        0.006951486366845781
0.00119                   -0.00196                 0                        0.006990340499148023
0.0012400000000000002     -0.00196                 0                        0.007011720872288109
0.00129                   -0.00196                 0                        0.007020388614141577
0.00134                   -0.00196                 0                        0.007014888637199887
0.0013900000000000002     -0.00196                 0                        0.00700116329832261
0.0014400000000000003     -0.00196                 0                        0.00698023125483338
0.00149                   -0.00196                 0                        0.006951957050560078
0.0015400000000000001     -0.00196                 0                        0.006918119755611894
0.0015900000000000003     -0.00196                 0                        0.006880389756841585
0.00164                   -0.00196                 0                        0.006837885896325912
0.00169                   -0.00196                 0                        0.006790330305050705
0.0017400000000000002     -0.00196                 0                        0.006735655807358852
0.00179                   -0.00196                 0                        0.006673052602829092
0.00184                   -0.00196                 0                        0.00660618933605733
0.0018900000000000002     -0.00196                 0                        0.006535120429626694
0.0019400000000000003     -0.00196                 0                        0.006458686564262178
0.00199                   -0.00196                 0                        0.006375070059137967
-0.00201                  -0.00191                 0                        0.0038389899832647852
-0.00196                  -0.00191                 0                        0.003926070368327067
-0.00191                  -0.00191                 0                        0.00401155694279178
-0.00186                  -0.00191                 0                        0.004095921997007816
-0.00181                  -0.00191                 0                        0.0041782836801179234
-0.00176                  -0.00191                 0                        0.004258828739665522
-0.0017100000000000001    -0.00191                 0                        0.004337416858658839
-0.00166                  -0.00191                 0                        0.004414321031348292
-0.00161                  -0.00191                 0                        0.004490610427397516
-0.00156                  -0.00191                 0                        0.004565693277705833
-0.00151                  -0.00191                 0                        0.00463807063244293
-0.00146                  -0.00191                 0                        0.004710359034672302
-0.00141                  -0.00191                 0                        0.004779863458961564
-0.00136                  -0.00191                 0                        0.004848012997244267
-0.00131                  -0.00191                 0                        0.004914108462301583
-0.00126                  -0.00191                 0                        0.004975230638036973
-0.0012100000000000001    -0.00191                 0                        0.005026864267634593
-0.00116                  -0.00191                 0                        0.005054669210599114
-0.0011099999999999999    -0.00191                 0                        0.005051871629708103
-0.0010600000000000002    -0.00191                 0                        0.005038415071178552
-0.00101                  -0.00191                 0                        0.005016623636486113
-9.599999999999999E-4     -0.00191                 0                        0.004991692137133829
-9.1E-4                   -0.00191                 0                        0.005258796630777143
-8.600000000000001E-4     -0.00191                 0                        0.0059162946750486705
-8.1E-4                   -0.00191                 0                        0.006567904499402634
-7.6E-4                   -0.00191                 0                        0.00721414434316591
-7.099999999999999E-4     -0.00191                 0                        0.007841789344500236
-6.6E-4                   -0.00191                 0                        0.008426354609904178
-6.100000000000001E-4     -0.00191                 0                        0.008946307476713856
-5.6E-4                   -0.00191                 0                        0.009060648950165702
-5.1E-4                   -0.00191                 0                        0.008964042358158009
-4.599999999999999E-4     -0.00191                 0                        0.008794156985532453
-4.1E-4                   -0.00191                 0                        0.008646115132448812
-3.600000000000001E-4     -0.00191                 0                        0.008745113069315441
-3.0999999999999995E-4    -0.00191                 0                        0.009010701550064072
-2.6000000000000003E-4    -0.00191                 0                        0.009248180941292525
-2.099999999999999E-4     -0.00191                 0                        0.00944147075456965
-1.5999999999999999E-4    -0.00191                 0                        0.00958591606667381
-1.1000000000000007E-4    -0.00191                 0                        0.00970220847367511
-5.999999999999994E-5     -0.00191                 0                        0.00980650128144469
-1.0000000000000026E-5    -0.00191                 0                        0.00989063204146933
4.0000000000000105E-5     -0.00191                 0                        0.009951940175714482
9.000000000000024E-5      -0.00191                 0                        0.009999012769756985
1.3999999999999993E-4     -0.00191                 0                        0.010029535825855133
1.9000000000000006E-4     -0.00191                 0                        0.010033200671289901
2.400000000000002E-4      -0.00191                 0                        0.009994168917281304
2.899999999999999E-4      -0.00191                 0                        0.00988742797647311
3.4E-4                    -0.00191                 0                        0.009766797392223973
3.9000000000000016E-4     -0.00191                 0                        0.00964286005214907
4.3999999999999985E-4     -0.00191                 0                        0.009935606721538133
4.9E-4                    -0.00191                 0                        0.010250128538821669
5.400000000000001E-4      -0.00191                 0                        0.010536529437086613
5.900000000000002E-4      -0.00191                 0                        0.010772894170255945
6.399999999999999E-4      -0.00191                 0                        0.010374853381488056
6.900000000000001E-4      -0.00191                 0                        0.009859253828710312
7.400000000000002E-4      -0.00191                 0                        0.009272072219530853
7.899999999999999E-4      -0.00191                 0                        0.008636476403098732
8.4E-4                    -0.00191                 0                        0.00796826131806236
8.900000000000002E-4      -0.00191                 0                        0.007273987318729007
9.399999999999999E-4      -0.00191                 0                        0.006706322591466494
9.9E-4                    -0.00191                 0                        0.006826458429725666
0.0010400000000000001     -0.00191                 0                        0.006944950963223345
0.0010900000000000003     -0.00191                 0                        0.007057026004636057
0.00114                   -0.00191                 0                        0.007152358886483208
0.00119                   -0.00191                 0                        0.007210889863636498
0.0012400000000000002     -0.00191                 0                        0.00723946768635817
0.00129                   -0.00191                 0                        0.007249826185482241
0.00134                   -0.00191                 0                        0.007239071960789259
0.0013900000000000002     -0.00191                 0                        0.007228955430954883
0.0014400000000000003     -0.00191                 0                        0.0072124602580110825
0.00149                   -0.00191                 0                        0.0071882429787372935
0.0015400000000000001     -0.00191                 0                        0.007157896781758244
0.0015900000000000003     -0.00191                 0                        0.007123133518380328
0.00164                   -0.00191                 0                        0.007083213938495343
0.00169                   -0.00191                 0                        0.007032536049909058
0.0017400000000000002     -0.00191                 0                        0.006978423056031562
0.00179                   -0.00191                 0                        0.006916669426741178
0.00184                   -0.00191                 0                        0.006849832776011754
0.0018900000000000002     -0.00191                 0                        0.00677791310384329
0.0019400000000000003     -0.00191                 0                        0.006700151638184984
0.00199                   -0.00191                 0                        0.006615092802776224
-0.00201                  -0.00186                 0                        0.003953227732016308
-0.00196                  -0.00186                 0                        0.0040416807953231665
-0.00191                  -0.00186                 0                        0.0041293276025035006
-0.00186                  -0.00186                 0                        0.004214319338594052
-0.00181                  -0.00186                 0                        0.00429725502471839
-0.00176                  -0.00186                 0                        0.0043783740872802195
-0.0017100000000000001    -0.00186                 0                        0.0044576765262795415
-0.00166                  -0.00186                 0                        0.0045351623417163615
-0.00161                  -0.00186                 0                        0.004612170741620715
-0.00156                  -0.00186                 0                        0.004685150779006121
-0.00151                  -0.00186                 0                        0.004756543639026246
-0.00146                  -0.00186                 0                        0.00482580664429959
-0.00141                  -0.00186                 0                        0.004893796207322275
-0.00136                  -0.00186                 0                        0.004961407844097961
-0.00131                  -0.00186                 0                        0.005033806046918293
-0.00126                  -0.00186                 0                        0.0051062960869723735
-0.0012100000000000001    -0.00186                 0                        0.005161968728043315
-0.00116                  -0.00186                 0                        0.005188179374002482
-0.0011099999999999999    -0.00186                 0                        0.005149662497399202
-0.0010600000000000002    -0.00186                 0                        0.00510273066604267
-0.00101                  -0.00186                 0                        0.005306490468238416
-9.599999999999999E-4     -0.00186                 0                        0.005998416639014846
-9.1E-4                   -0.00186                 0                        0.006703931789543606
-8.600000000000001E-4     -0.00186                 0                        0.00744070502800124
-8.1E-4                   -0.00186                 0                        0.008164585955063154
-7.6E-4                   -0.00186                 0                        0.008868621300210449
-7.099999999999999E-4     -0.00186                 0                        0.009208713293268788
-6.6E-4                   -0.00186                 0                        0.009201649556284303
-6.100000000000001E-4     -0.00186                 0                        0.009192790250534131
-5.6E-4                   -0.00186                 0                        0.00917149506577544
-5.1E-4                   -0.00186                 0                        0.009137791890611055
-4.599999999999999E-4     -0.00186                 0                        0.009098142553127662
-4.1E-4                   -0.00186                 0                        0.009108355521331974
-3.600000000000001E-4     -0.00186                 0                        0.009198158946560214
-3.0999999999999995E-4    -0.00186                 0                        0.009345602865112709
-2.6000000000000003E-4    -0.00186                 0                        0.00952538344402175
-2.099999999999999E-4     -0.00186                 0                        0.009692031100593251
-1.5999999999999999E-4    -0.00186                 0                        0.009836810821061802
-1.1000000000000007E-4    -0.00186                 0                        0.00994872897697582
-5.999999999999994E-5     -0.00186                 0                        0.010053613049856936
-1.0000000000000026E-5    -0.00186                 0                        0.010144564758508872
4.0000000000000105E-5     -0.00186                 0                        0.010211558151592607
9.000000000000024E-5      -0.00186                 0                        0.010261589802728047
1.3999999999999993E-4     -0.00186                 0                        0.010295394705012985
1.9000000000000006E-4     -0.00186                 0                        0.010305807533325696
2.400000000000002E-4      -0.00186                 0                        0.010285426956487072
2.899999999999999E-4      -0.00186                 0                        0.010240232887438862
3.4E-4                    -0.00186                 0                        0.01022207770981675
3.9000000000000016E-4     -0.00186                 0                        0.010226778105277865
4.3999999999999985E-4     -0.00186                 0                        0.010325070183223298
4.9E-4                    -0.00186                 0                        0.010530272619495087
5.400000000000001E-4      -0.00186                 0                        0.010730067588841118
5.900000000000002E-4      -0.00186                 0                        0.010901153461815919
6.399999999999999E-4      -0.00186                 0                        0.011064240033551677
6.900000000000001E-4      -0.00186                 0                        0.011221395217720967
7.400000000000002E-4      -0.00186                 0                        0.011295680803373655
7.899999999999999E-4      -0.00186                 0                        0.01061847298918286
8.4E-4                    -0.00186                 0                        0.009890327585907402
8.900000000000002E-4      -0.00186                 0                        0.009142450110158408
9.399999999999999E-4      -0.00186                 0                        0.008379922547199664
9.9E-4                    -0.00186                 0                        0.007593147779033546
0.0010400000000000001     -0.00186                 0                        0.00705564090418918