% Model:              cuff_3d_14electrodes_4mm_nerve.mph
% Version:            COMSOL 5.3.0.260
% Date:               Apr 27 2020, 14:14
% Dimension:          3
% Nodes:              6561
% Expressions:        1
% Description:        Electric potential
% Length unit:        m
% X                       Y                        Z                        V (V)
-0.00201                  -0.00201                 0                        0.1199026299129105
-0.00196                  -0.00201                 0                        0.12548492788429216
-0.00191                  -0.00201                 0                        0.13124763405029138
-0.00186                  -0.00201                 0                        0.13716744363189856
-0.00181                  -0.00201                 0                        0.14302224395362903
-0.00176                  -0.00201                 0                        0.14886092846097343
-0.0017100000000000001    -0.00201                 0                        0.15472590970952688
-0.00166                  -0.00201                 0                        0.16053800494110082
-0.00161                  -0.00201                 0                        0.16630104482264207
-0.00156                  -0.00201                 0                        0.1718864738513516
-0.00151                  -0.00201                 0                        0.17721688544887987
-0.00146                  -0.00201                 0                        0.1822178244150147
-0.00141                  -0.00201                 0                        0.186724911643377
-0.00136                  -0.00201                 0                        0.19059667590588794
-0.00131                  -0.00201                 0                        0.19379939159479498
-0.00126                  -0.00201                 0                        0.19549218829212933
-0.0012100000000000001    -0.00201                 0                        0.19463479497825495
-0.00116                  -0.00201                 0                        0.1918638948048828
-0.0011099999999999999    -0.00201                 0                        0.18653720561267645
-0.0010600000000000002    -0.00201                 0                        0.1795561762182362
-0.00101                  -0.00201                 0                        0.17094988779558595
-9.599999999999999E-4     -0.00201                 0                        0.16181232836322174
-9.1E-4                   -0.00201                 0                        0.15264108053732922
-8.600000000000001E-4     -0.00201                 0                        0.1434915577262102
-8.1E-4                   -0.00201                 0                        0.1348762808878613
-7.6E-4                   -0.00201                 0                        0.12669790237493372
-7.099999999999999E-4     -0.00201                 0                        0.11902134362267594
-6.6E-4                   -0.00201                 0                        0.11761446197950053
-6.100000000000001E-4     -0.00201                 0                        0.11878747395515514
-5.6E-4                   -0.00201                 0                        0.11758502524941619
-5.1E-4                   -0.00201                 0                        0.11454216820414874
-4.599999999999999E-4     -0.00201                 0                        0.10916336184046753
-4.1E-4                   -0.00201                 0                        0.1013067988958817
-3.600000000000001E-4     -0.00201                 0                        0.10177804555495651
-3.0999999999999995E-4    -0.00201                 0                        0.09936070663055468
-2.6000000000000003E-4    -0.00201                 0                        0.09656873337820354
-2.099999999999999E-4     -0.00201                 0                        0.0930665818283421
-1.5999999999999999E-4    -0.00201                 0                        0.08927130801590064
-1.1000000000000007E-4    -0.00201                 0                        0.08529174048062631
-5.999999999999994E-5     -0.00201                 0                        0.08124014341912764
-1.0000000000000026E-5    -0.00201                 0                        0.07712616447395906
4.0000000000000105E-5     -0.00201                 0                        0.0729921101230027
9.000000000000024E-5      -0.00201                 0                        0.06874546622046669
1.3999999999999993E-4     -0.00201                 0                        0.06465268250703606
1.9000000000000006E-4     -0.00201                 0                        0.060490506585666064
2.400000000000002E-4      -0.00201                 0                        0.05624013497297585
2.899999999999999E-4      -0.00201                 0                        0.05182359360434881
3.4E-4                    -0.00201                 0                        0.04697121576622255
3.9000000000000016E-4     -0.00201                 0                        0.04260895636969844
4.3999999999999985E-4     -0.00201                 0                        0.041231543651206765
4.9E-4                    -0.00201                 0                        0.038684687162388015
5.400000000000001E-4      -0.00201                 0                        0.03585327437471937
5.900000000000002E-4      -0.00201                 0                        0.03282211795083949
6.399999999999999E-4      -0.00201                 0                        0.02985001286846854
6.900000000000001E-4      -0.00201                 0                        0.026947239937488227
7.400000000000002E-4      -0.00201                 0                        0.025870532207938866
7.899999999999999E-4      -0.00201                 0                        0.02486560134629819
8.4E-4                    -0.00201                 0                        0.02393967561353388
8.900000000000002E-4      -0.00201                 0                        0.023072346826934036
9.399999999999999E-4      -0.00201                 0                        0.02224566344749455
9.9E-4                    -0.00201                 0                        0.02144333233123302
0.0010400000000000001     -0.00201                 0                        0.020671917243013458
0.0010900000000000003     -0.00201                 0                        0.019937854269639357
0.00114                   -0.00201                 0                        0.01922652622549916
0.00119                   -0.00201                 0                        0.018524133821962607
0.0012400000000000002     -0.00201                 0                        0.017832885353974644
0.00129                   -0.00201                 0                        0.017156050194983452
0.00134                   -0.00201                 0                        0.01649675881036275
0.0013900000000000002     -0.00201                 0                        0.0158558280012976
0.0014400000000000003     -0.00201                 0                        0.015239465548206692
0.00149                   -0.00201                 0                        0.014644209668216068
0.0015400000000000001     -0.00201                 0                        0.014073208121132504
0.0015900000000000003     -0.00201                 0                        0.013524930069791847
0.00164                   -0.00201                 0                        0.012996319968994896
0.00169                   -0.00201                 0                        0.012485661682649562
0.0017400000000000002     -0.00201                 0                        0.011999408416184288
0.00179                   -0.00201                 0                        0.01152886359934804
0.00184                   -0.00201                 0                        0.011073480106773375
0.0018900000000000002     -0.00201                 0                        0.01063634439407439
0.0019400000000000003     -0.00201                 0                        0.010215398302061363
0.00199                   -0.00201                 0                        0.009806465333745016
-0.00201                  -0.00196                 0                        0.1254973772810516
-0.00196                  -0.00196                 0                        0.13162769859311207
-0.00191                  -0.00196                 0                        0.13794963957313733
-0.00186                  -0.00196                 0                        0.14436342803336602
-0.00181                  -0.00196                 0                        0.15083020775660663
-0.00176                  -0.00196                 0                        0.1573499592656434
-0.0017100000000000001    -0.00196                 0                        0.16392268256047648
-0.00166                  -0.00196                 0                        0.17041525762026752
-0.00161                  -0.00196                 0                        0.17683841854974364
-0.00156                  -0.00196                 0                        0.18324341973963512
-0.00151                  -0.00196                 0                        0.18944104224711056
-0.00146                  -0.00196                 0                        0.19529247428478297
-0.00141                  -0.00196                 0                        0.2008335454506051
-0.00136                  -0.00196                 0                        0.2058917145832113
-0.00131                  -0.00196                 0                        0.2105070890442672
-0.00126                  -0.00196                 0                        0.21378154827540113
-0.0012100000000000001    -0.00196                 0                        0.21384538574097497
-0.00116                  -0.00196                 0                        0.21011311769721908
-0.0011099999999999999    -0.00196                 0                        0.20317075318214137
-0.0010600000000000002    -0.00196                 0                        0.19360597029504434
-0.00101                  -0.00196                 0                        0.181982261612805
-9.599999999999999E-4     -0.00196                 0                        0.1703807597547885
-9.1E-4                   -0.00196                 0                        0.15965833718144024
-8.600000000000001E-4     -0.00196                 0                        0.149166966834791
-8.1E-4                   -0.00196                 0                        0.14322326149583192
-7.6E-4                   -0.00196                 0                        0.14891576963838274
-7.099999999999999E-4     -0.00196                 0                        0.1507502096292116
-6.6E-4                   -0.00196                 0                        0.15119506906071448
-6.100000000000001E-4     -0.00196                 0                        0.14930556599448294
-5.6E-4                   -0.00196                 0                        0.14495011664003712
-5.1E-4                   -0.00196                 0                        0.1388606148321893
-4.599999999999999E-4     -0.00196                 0                        0.12969504382813127
-4.1E-4                   -0.00196                 0                        0.1145692595121645
-3.600000000000001E-4     -0.00196                 0                        0.11260248042742606
-3.0999999999999995E-4    -0.00196                 0                        0.11009821457381935
-2.6000000000000003E-4    -0.00196                 0                        0.10490715750963363
-2.099999999999999E-4     -0.00196                 0                        0.09954430068683968
-1.5999999999999999E-4    -0.00196                 0                        0.09422656360000002
-1.1000000000000007E-4    -0.00196                 0                        0.08912670825483111
-5.999999999999994E-5     -0.00196                 0                        0.08428108106536883
-1.0000000000000026E-5    -0.00196                 0                        0.07969793462887749
4.0000000000000105E-5     -0.00196                 0                        0.07537369794886309
9.000000000000024E-5      -0.00196                 0                        0.07128336955731959
1.3999999999999993E-4     -0.00196                 0                        0.06740846724563407
1.9000000000000006E-4     -0.00196                 0                        0.06369466477325209
2.400000000000002E-4      -0.00196                 0                        0.06001076642741707
2.899999999999999E-4      -0.00196                 0                        0.05616688437930171
3.4E-4                    -0.00196                 0                        0.05171614066973383
3.9000000000000016E-4     -0.00196                 0                        0.04648466508120341
4.3999999999999985E-4     -0.00196                 0                        0.04613147240934628
4.9E-4                    -0.00196                 0                        0.04409227313878618
5.400000000000001E-4      -0.00196                 0                        0.04128266531718773
5.900000000000002E-4      -0.00196                 0                        0.03816280228218208
6.399999999999999E-4      -0.00196                 0                        0.035009954596635
6.900000000000001E-4      -0.00196                 0                        0.03188428212599443
7.400000000000002E-4      -0.00196                 0                        0.028784543573569757
7.899999999999999E-4      -0.00196                 0                        0.025792395537180948
8.4E-4                    -0.00196                 0                        0.02367459884595201
8.900000000000002E-4      -0.00196                 0                        0.02285511533119505
9.399999999999999E-4      -0.00196                 0                        0.02208146268040127
9.9E-4                    -0.00196                 0                        0.021337627202908115
0.0010400000000000001     -0.00196                 0                        0.02062606992448078
0.0010900000000000003     -0.00196                 0                        0.01993685665037943
0.00114                   -0.00196                 0                        0.019268084213835742
0.00119                   -0.00196                 0                        0.01858684871804772
0.0012400000000000002     -0.00196                 0                        0.017909187108564203
0.00129                   -0.00196                 0                        0.017244016316187574
0.00134                   -0.00196                 0                        0.0165883006356629
0.0013900000000000002     -0.00196                 0                        0.015951500637177544
0.0014400000000000003     -0.00196                 0                        0.015335113893190186
0.00149                   -0.00196                 0                        0.014738874874518072
0.0015400000000000001     -0.00196                 0                        0.014165815849387104
0.0015900000000000003     -0.00196                 0                        0.013616711918229314
0.00164                   -0.00196                 0                        0.01308953737488812
0.00169                   -0.00196                 0                        0.01258233260200231
0.0017400000000000002     -0.00196                 0                        0.012093432100405553
0.00179                   -0.00196                 0                        0.011618110486504546
0.00184                   -0.00196                 0                        0.011162155141464106
0.0018900000000000002     -0.00196                 0                        0.010725607459654595
0.0019400000000000003     -0.00196                 0                        0.010304054768357555
0.00199                   -0.00196                 0                        0.009895373108953266
-0.00201                  -0.00191                 0                        0.1311523149052993
-0.00196                  -0.00191                 0                        0.13776776667070775
-0.00191                  -0.00191                 0                        0.14471522768422987
-0.00186                  -0.00191                 0                        0.1517678645618944
-0.00181                  -0.00191                 0                        0.15891936236964302
-0.00176                  -0.00191                 0                        0.16611629693396435
-0.0017100000000000001    -0.00191                 0                        0.1733676072588396
-0.00166                  -0.00191                 0                        0.1806361662523892
-0.00161                  -0.00191                 0                        0.18773506344309424
-0.00156                  -0.00191                 0                        0.19508958102247725
-0.00151                  -0.00191                 0                        0.2020788014446581
-0.00146                  -0.00191                 0                        0.2091135456317678
-0.00141                  -0.00191                 0                        0.2158834485717466
-0.00136                  -0.00191                 0                        0.22246038312830868
-0.00131                  -0.00191                 0                        0.22846642515608837
-0.00126                  -0.00191                 0                        0.2333996652504713
-0.0012100000000000001    -0.00191                 0                        0.23605855256897526
-0.00116                  -0.00191                 0                        0.23252558810283283
-0.0011099999999999999    -0.00191                 0                        0.22103845288122076
-0.0010600000000000002    -0.00191                 0                        0.20764601354761006
-0.00101                  -0.00191                 0                        0.1929313716955053
-9.599999999999999E-4     -0.00191                 0                        0.17880227285711733
-9.1E-4                   -0.00191                 0                        0.17811589621282733
-8.600000000000001E-4     -0.00191                 0                        0.18787732271962482
-8.1E-4                   -0.00191                 0                        0.19401569863756496
-7.6E-4                   -0.00191                 0                        0.1949485978755317
-7.099999999999999E-4     -0.00191                 0                        0.19238245212389346
-6.6E-4                   -0.00191                 0                        0.18826942695785046
-6.100000000000001E-4     -0.00191                 0                        0.18249318383254065
-5.6E-4                   -0.00191                 0                        0.16961152538779783
-5.1E-4                   -0.00191                 0                        0.15459521171043691
-4.599999999999999E-4     -0.00191                 0                        0.1400661757398244
-4.1E-4                   -0.00191                 0                        0.12733924937789448
-3.600000000000001E-4     -0.00191                 0                        0.11874239758179699
-3.0999999999999995E-4    -0.00191                 0                        0.11250173258555687
-2.6000000000000003E-4    -0.00191                 0                        0.10662724598406256
-2.099999999999999E-4     -0.00191                 0                        0.1009405610481511
-1.5999999999999999E-4    -0.00191                 0                        0.09536992809202816
-1.1000000000000007E-4    -0.00191                 0                        0.0900278959167073
-5.999999999999994E-5     -0.00191                 0                        0.08504964291031691
-1.0000000000000026E-5    -0.00191                 0                        0.08033545375719946
4.0000000000000105E-5     -0.00191                 0                        0.07587184953029522
9.000000000000024E-5      -0.00191                 0                        0.07165241360815092
1.3999999999999993E-4     -0.00191                 0                        0.06767961484915712
1.9000000000000006E-4     -0.00191                 0                        0.06386516636309617
2.400000000000002E-4      -0.00191                 0                        0.06011193510715177
2.899999999999999E-4      -0.00191                 0                        0.05631746257157291
3.4E-4                    -0.00191                 0                        0.05271526885268169
3.9000000000000016E-4     -0.00191                 0                        0.04938396231906057
4.3999999999999985E-4     -0.00191                 0                        0.04785305801257586
4.9E-4                    -0.00191                 0                        0.04647267814962122
5.400000000000001E-4      -0.00191                 0                        0.04510074545518891
5.900000000000002E-4      -0.00191                 0                        0.04366344064682416
6.399999999999999E-4      -0.00191                 0                        0.04038655559127104
6.900000000000001E-4      -0.00191                 0                        0.03699447915550731
7.400000000000002E-4      -0.00191                 0                        0.03364422076500083
7.899999999999999E-4      -0.00191                 0                        0.030385115839268513
8.4E-4                    -0.00191                 0                        0.02726195930143555
8.900000000000002E-4      -0.00191                 0                        0.02427735141946172
9.399999999999999E-4      -0.00191                 0                        0.021800984826020844
9.9E-4                    -0.00191                 0                        0.021127340343270042
0.0010400000000000001     -0.00191                 0                        0.020487302017064748
0.0010900000000000003     -0.00191                 0                        0.01987285435133705
0.00114                   -0.00191                 0                        0.019264645136916555
0.00119                   -0.00191                 0                        0.018627018701861987
0.0012400000000000002     -0.00191                 0                        0.017966346154013303
0.00129                   -0.00191                 0                        0.017306616884604675
0.00134                   -0.00191                 0                        0.01664040728788931
0.0013900000000000002     -0.00191                 0                        0.016008184686514958
0.0014400000000000003     -0.00191                 0                        0.015397722758663683
0.00149                   -0.00191                 0                        0.014806547786128018
0.0015400000000000001     -0.00191                 0                        0.014237948802710945
0.0015900000000000003     -0.00191                 0                        0.013693262994898557
0.00164                   -0.00191                 0                        0.013169731342647435
0.00169                   -0.00191                 0                        0.012657663162881997
0.0017400000000000002     -0.00191                 0                        0.01216809254118979
0.00179                   -0.00191                 0                        0.01169450153319342
0.00184                   -0.00191                 0                        0.011239348633819833
0.0018900000000000002     -0.00191                 0                        0.010802633843069039
0.0019400000000000003     -0.00191                 0                        0.010381286713594628
0.00199                   -0.00191                 0                        0.009973265675399384
-0.00201                  -0.00186                 0                        0.13688894509512253
-0.00196                  -0.00186                 0                        0.14416512491600939
-0.00191                  -0.00186                 0                        0.1516907305853579
-0.00186                  -0.00186                 0                        0.15937916909600508
-0.00181                  -0.00186                 0                        0.16723652128998504
-0.00176                  -0.00186                 0                        0.1751393102405376
-0.0017100000000000001    -0.00186                 0                        0.18308753594766286
-0.00166                  -0.00186                 0                        0.1910811984113609
-0.00161                  -0.00186                 0                        0.1991289090577768
-0.00156                  -0.00186                 0                        0.2070115363473333
-0.00151                  -0.00186                 0                        0.21480628104861146
-0.00146                  -0.00186                 0                        0.2225165478269152
-0.00141                  -0.00186                 0                        0.23039585945618563
-0.00136                  -0.00186                 0                        0.23838286578400297
-0.00131                  -0.00186                 0                        0.2479028214631032
-0.00126                  -0.00186                 0                        0.25802341498678044
-0.0012100000000000001    -0.00186                 0                        0.26380746890173534
-0.00116                  -0.00186                 0                        0.26201994869602063
-0.0011099999999999999    -0.00186                 0                        0.24324344712596183
-0.0010600000000000002    -0.00186                 0                        0.2234111564833677
-0.00101                  -0.00186                 0                        0.22183651605500007
-9.599999999999999E-4     -0.00186                 0                        0.244304709337977
-9.1E-4                   -0.00186                 0                        0.25099580534242244
-8.600000000000001E-4     -0.00186                 0                        0.2519775351522386
-8.1E-4                   -0.00186                 0                        0.2503933305181698
-7.6E-4                   -0.00186                 0                        0.24640673091618223
-7.099999999999999E-4     -0.00186                 0                        0.2316663678429667
-6.6E-4                   -0.00186                 0                        0.21034136859064176
-6.100000000000001E-4     -0.00186                 0                        0.19155958462471287
-5.6E-4                   -0.00186                 0                        0.17472824276781296
-5.1E-4                   -0.00186                 0                        0.15940234063914133
-4.599999999999999E-4     -0.00186                 0                        0.14574080817652416
-4.1E-4                   -0.00186                 0                        0.1339658283689843
-3.600000000000001E-4     -0.00186                 0                        0.1243600611546658
-3.0999999999999995E-4    -0.00186                 0                        0.1162594132276461
-2.6000000000000003E-4    -0.00186                 0                        0.10937571558068343
-2.099999999999999E-4     -0.00186                 0                        0.10301117781964082
-1.5999999999999999E-4    -0.00186                 0                        0.09708023877804342
-1.1000000000000007E-4    -0.00186                 0                        0.0914379835528219
-5.999999999999994E-5     -0.00186                 0                        0.0862189732244129
-1.0000000000000026E-5    -0.00186                 0                        0.08135455361772484
4.0000000000000105E-5     -0.00186                 0                        0.07676148225713737
9.000000000000024E-5      -0.00186                 0                        0.07241515256157159
1.3999999999999993E-4     -0.00186                 0                        0.06832636375816059
1.9000000000000006E-4     -0.00186                 0                        0.06443933634732754
2.400000000000002E-4      -0.00186                 0                        0.060688621493270235
2.899999999999999E-4      -0.00186                 0                        0.05709302120885969
3.4E-4                    -0.00186                 0                        0.05384630438244146
3.9000000000000016E-4     -0.00186                 0                        0.05091198628061812
4.3999999999999985E-4     -0.00186                 0                        0.04855812008596885
4.9E-4                    -0.00186                 0                        0.046737241301836346
5.400000000000001E-4      -0.00186                 0                        0.04504655472396435
5.900000000000002E-4      -0.00186                 0                        0.04337127905792817
6.399999999999999E-4      -0.00186                 0                        0.041785525963170325
6.900000000000001E-4      -0.00186                 0                        0.04028270260677402
7.400000000000002E-4      -0.00186                 0                        0.03865175313156451
7.899999999999999E-4      -0.00186                 0                        0.03510453780346128
8.4E-4                    -0.00186                 0                        0.031671405921321456
8.900000000000002E-4      -0.00186                 0                        0.028425365556670038
9.399999999999999E-4      -0.00186                 0                        0.0253570955612695
9.9E-4                    -0.00186                 0                        0.022429767888126086
0.0010400000000000001     -0.00186                 0                        0.02025641432398278
0.0010900000000000003     -0.00186                 0                        0.019737531521691717
0.00114                   -0.00186                 0                        0.019257424744333295
0.00119                   -0.00186                 0                        0.01867073353048671