% Model:              cuff_3d_14electrodes_4mm_nerve.mph
% Version:            COMSOL 5.3.0.260
% Date:               Apr 27 2020, 14:14
% Dimension:          3
% Nodes:              6561
% Expressions:        1
% Description:        Electric potential
% Length unit:        m
% X                       Y                        Z                        V (V)
-0.00201                  -0.00201                 0                        0.07962313315633074
-0.00196                  -0.00201                 0                        0.08449833424571207
-0.00191                  -0.00201                 0                        0.08967226136695787
-0.00186                  -0.00201                 0                        0.09525673755118215
-0.00181                  -0.00201                 0                        0.10142644836543321
-0.00176                  -0.00201                 0                        0.10822111404680633
-0.0017100000000000001    -0.00201                 0                        0.11562461879763605
-0.00166                  -0.00201                 0                        0.1234832454155473
-0.00161                  -0.00201                 0                        0.13180676795546276
-0.00156                  -0.00201                 0                        0.14100474604583504
-0.00151                  -0.00201                 0                        0.15122805727739602
-0.00146                  -0.00201                 0                        0.16239340102553923
-0.00141                  -0.00201                 0                        0.1740177360664899
-0.00136                  -0.00201                 0                        0.18627657572601988
-0.00131                  -0.00201                 0                        0.19937650766311574
-0.00126                  -0.00201                 0                        0.2123024421513116
-0.0012100000000000001    -0.00201                 0                        0.22363060717822553
-0.00116                  -0.00201                 0                        0.23398053685588546
-0.0011099999999999999    -0.00201                 0                        0.24266649933411805
-0.0010600000000000002    -0.00201                 0                        0.2497359209063255
-0.00101                  -0.00201                 0                        0.2552156432070094
-9.599999999999999E-4     -0.00201                 0                        0.25921829673330554
-9.1E-4                   -0.00201                 0                        0.26244462217935843
-8.600000000000001E-4     -0.00201                 0                        0.2650062747067009
-8.1E-4                   -0.00201                 0                        0.2672769495701979
-7.6E-4                   -0.00201                 0                        0.2684496664031702
-7.099999999999999E-4     -0.00201                 0                        0.26886964310636435
-6.6E-4                   -0.00201                 0                        0.33583359686950365
-6.100000000000001E-4     -0.00201                 0                        0.4455480619043644
-5.6E-4                   -0.00201                 0                        0.5469953136633066
-5.1E-4                   -0.00201                 0                        0.6400910827991059
-4.599999999999999E-4     -0.00201                 0                        0.7230082757243782
-4.1E-4                   -0.00201                 0                        0.7275912281302466
-3.600000000000001E-4     -0.00201                 0                        0.6922901299675136
-3.0999999999999995E-4    -0.00201                 0                        0.5579352968376197
-2.6000000000000003E-4    -0.00201                 0                        0.4708057710131266
-2.099999999999999E-4     -0.00201                 0                        0.4091806140543494
-1.5999999999999999E-4    -0.00201                 0                        0.3610240096076405
-1.1000000000000007E-4    -0.00201                 0                        0.3201972849627617
-5.999999999999994E-5     -0.00201                 0                        0.2846345759205439
-1.0000000000000026E-5    -0.00201                 0                        0.2548885741757524
4.0000000000000105E-5     -0.00201                 0                        0.22879303642580742
9.000000000000024E-5      -0.00201                 0                        0.20490539890079118
1.3999999999999993E-4     -0.00201                 0                        0.18448196298986141
1.9000000000000006E-4     -0.00201                 0                        0.1656516028171866
2.400000000000002E-4      -0.00201                 0                        0.14820110829108357
2.899999999999999E-4      -0.00201                 0                        0.13177482011356342
3.4E-4                    -0.00201                 0                        0.11517741389436142
3.9000000000000016E-4     -0.00201                 0                        0.10087433454581046
4.3999999999999985E-4     -0.00201                 0                        0.09654953693171558
4.9E-4                    -0.00201                 0                        0.08867304651292157
5.400000000000001E-4      -0.00201                 0                        0.08066012053888745
5.900000000000002E-4      -0.00201                 0                        0.07268333559055473
6.399999999999999E-4      -0.00201                 0                        0.06520482175232098
6.900000000000001E-4      -0.00201                 0                        0.05820405394595859
7.400000000000002E-4      -0.00201                 0                        0.055251415110908496
7.899999999999999E-4      -0.00201                 0                        0.052534041787981815
8.4E-4                    -0.00201                 0                        0.05005825905010783
8.900000000000002E-4      -0.00201                 0                        0.047760802102784106
9.399999999999999E-4      -0.00201                 0                        0.045605050497687386
9.9E-4                    -0.00201                 0                        0.043551166273538604
0.0010400000000000001     -0.00201                 0                        0.04161014157750385
0.0010900000000000003     -0.00201                 0                        0.0397893490810008
0.00114                   -0.00201                 0                        0.03805802799188374
0.00119                   -0.00201                 0                        0.03638946622725916
0.0012400000000000002     -0.00201                 0                        0.03477511609480259
0.00129                   -0.00201                 0                        0.03322339319480583
0.00134                   -0.00201                 0                        0.03173674204660751
0.0013900000000000002     -0.00201                 0                        0.030309986785361828
0.0014400000000000003     -0.00201                 0                        0.028955561364292497
0.00149                   -0.00201                 0                        0.02766400047088266
0.0015400000000000001     -0.00201                 0                        0.026438997591607394
0.0015900000000000003     -0.00201                 0                        0.02527152655185234
0.00164                   -0.00201                 0                        0.02415514013841445
0.00169                   -0.00201                 0                        0.02308784418749775
0.0017400000000000002     -0.00201                 0                        0.02208167554244434
0.00179                   -0.00201                 0                        0.021116436438388
0.00184                   -0.00201                 0                        0.020190386207372766
0.0018900000000000002     -0.00201                 0                        0.01930974298401623
0.0019400000000000003     -0.00201                 0                        0.018468488352919955
0.00199                   -0.00201                 0                        0.01765671844274505
-0.00201                  -0.00196                 0                        0.08064495736389884
-0.00196                  -0.00196                 0                        0.08563894355306836
-0.00191                  -0.00196                 0                        0.09093365061741779
-0.00186                  -0.00196                 0                        0.09663106450006494
-0.00181                  -0.00196                 0                        0.10299124795428714
-0.00176                  -0.00196                 0                        0.11001393392850987
-0.0017100000000000001    -0.00196                 0                        0.1176991224227332
-0.00166                  -0.00196                 0                        0.12595813208603482
-0.00161                  -0.00196                 0                        0.13468028314220487
-0.00156                  -0.00196                 0                        0.14456960168268512
-0.00151                  -0.00196                 0                        0.15550083210759966
-0.00146                  -0.00196                 0                        0.16749498174643496
-0.00141                  -0.00196                 0                        0.180446522992919
-0.00136                  -0.00196                 0                        0.19439851299340213
-0.00131                  -0.00196                 0                        0.20934252062422656
-0.00126                  -0.00196                 0                        0.2244957758470608
-0.0012100000000000001    -0.00196                 0                        0.23752896117854994
-0.00116                  -0.00196                 0                        0.2481091913236482
-0.0011099999999999999    -0.00196                 0                        0.2558955913506118
-0.0010600000000000002    -0.00196                 0                        0.2609796170866548
-0.00101                  -0.00196                 0                        0.26381583975681316
-9.599999999999999E-4     -0.00196                 0                        0.2654586027569816
-9.1E-4                   -0.00196                 0                        0.2675966305499321
-8.600000000000001E-4     -0.00196                 0                        0.2693213267580072
-8.1E-4                   -0.00196                 0                        0.2991907286728169
-7.6E-4                   -0.00196                 0                        0.4318284515372558
-7.099999999999999E-4     -0.00196                 0                        0.5579899618983243
-6.6E-4                   -0.00196                 0                        0.6779384881898833
-6.100000000000001E-4     -0.00196                 0                        0.7915030578069183
-5.6E-4                   -0.00196                 0                        0.8971130523429868
-5.1E-4                   -0.00196                 0                        0.991784718828931
-4.599999999999999E-4     -0.00196                 0                        1.0590889800218126
-4.1E-4                   -0.00196                 0                        1.1510136075156414
-3.600000000000001E-4     -0.00196                 0                        0.8335412805415046
-3.0999999999999995E-4    -0.00196                 0                        0.6483010542633478
-2.6000000000000003E-4    -0.00196                 0                        0.536703051231684
-2.099999999999999E-4     -0.00196                 0                        0.45256618302383766
-1.5999999999999999E-4    -0.00196                 0                        0.38914533414093216
-1.1000000000000007E-4    -0.00196                 0                        0.33946998047131605
-5.999999999999994E-5     -0.00196                 0                        0.2983840493213558
-1.0000000000000026E-5    -0.00196                 0                        0.26536424206144515
4.0000000000000105E-5     -0.00196                 0                        0.23787476763492912
9.000000000000024E-5      -0.00196                 0                        0.21383412221828174
1.3999999999999993E-4     -0.00196                 0                        0.19328375925251087
1.9000000000000006E-4     -0.00196                 0                        0.17548114795671288
2.400000000000002E-4      -0.00196                 0                        0.15925294087023723
2.899999999999999E-4      -0.00196                 0                        0.14391375117670535
3.4E-4                    -0.00196                 0                        0.127910552625215
3.9000000000000016E-4     -0.00196                 0                        0.11107964962920129
4.3999999999999985E-4     -0.00196                 0                        0.10804022919278566
4.9E-4                    -0.00196                 0                        0.10093985027122915
5.400000000000001E-4      -0.00196                 0                        0.09261611390628521
5.900000000000002E-4      -0.00196                 0                        0.08412120079559006
6.399999999999999E-4      -0.00196                 0                        0.07596901059233592
6.900000000000001E-4      -0.00196                 0                        0.06826730886697509
7.400000000000002E-4      -0.00196                 0                        0.06096718469291007
7.899999999999999E-4      -0.00196                 0                        0.05414812660857101
8.4E-4                    -0.00196                 0                        0.04929858016025333
8.900000000000002E-4      -0.00196                 0                        0.0471157517322156
9.399999999999999E-4      -0.00196                 0                        0.04507685925665009
9.9E-4                    -0.00196                 0                        0.04314626723622971
0.0010400000000000001     -0.00196                 0                        0.041328054733982066
0.0010900000000000003     -0.00196                 0                        0.03959971184410922
0.00114                   -0.00196                 0                        0.03795503749920242
0.00119                   -0.00196                 0                        0.03633291820450975
0.0012400000000000002     -0.00196                 0                        0.034753951341758814
0.00129                   -0.00196                 0                        0.03323167311991286
0.00134                   -0.00196                 0                        0.03176020327873497
0.0013900000000000002     -0.00196                 0                        0.030350708394690284
0.0014400000000000003     -0.00196                 0                        0.029002591852097036
0.00149                   -0.00196                 0                        0.02771523672084539
0.0015400000000000001     -0.00196                 0                        0.026491913359295422
0.0015900000000000003     -0.00196                 0                        0.025328253382846656
0.00164                   -0.00196                 0                        0.02422027334368093
0.00169                   -0.00196                 0                        0.02316357899393802
0.0017400000000000002     -0.00196                 0                        0.022155623585099222
0.00179                   -0.00196                 0                        0.021185870570334914
0.00184                   -0.00196                 0                        0.02026321918860596
0.0018900000000000002     -0.00196                 0                        0.019387685132988473
0.0019400000000000003     -0.00196                 0                        0.01854891656437989
0.00199                   -0.00196                 0                        0.017742196649599126
-0.00201                  -0.00191                 0                        0.08138772924553124
-0.00196                  -0.00191                 0                        0.08646938075427962
-0.00191                  -0.00191                 0                        0.09198470863523545
-0.00186                  -0.00191                 0                        0.09777110994767539
-0.00181                  -0.00191                 0                        0.10420747822581697
-0.00176                  -0.00191                 0                        0.11139547579336782
-0.0017100000000000001    -0.00191                 0                        0.11930712787687288
-0.00166                  -0.00191                 0                        0.12788262895429173
-0.00161                  -0.00191                 0                        0.13704080084652204
-0.00156                  -0.00191                 0                        0.1476547444612373
-0.00151                  -0.00191                 0                        0.15923568627085388
-0.00146                  -0.00191                 0                        0.17220263155829155
-0.00141                  -0.00191                 0                        0.18648401499001457
-0.00136                  -0.00191                 0                        0.20234264194684365
-0.00131                  -0.00191                 0                        0.21921464149130093
-0.00126                  -0.00191                 0                        0.23659652903040576
-0.0012100000000000001    -0.00191                 0                        0.252867430201397
-0.00116                  -0.00191                 0                        0.264202064952273
-0.0011099999999999999    -0.00191                 0                        0.2682020267692752
-0.0010600000000000002    -0.00191                 0                        0.2698780618467962
-0.00101                  -0.00191                 0                        0.27006431132940045
-9.599999999999999E-4     -0.00191                 0                        0.26932083258751705
-9.1E-4                   -0.00191                 0                        0.33501620274692406
-8.600000000000001E-4     -0.00191                 0                        0.4856409005374324
-8.1E-4                   -0.00191                 0                        0.6302899629549237
-7.6E-4                   -0.00191                 0                        0.7689300378263009
-7.099999999999999E-4     -0.00191                 0                        0.9008815134940806
-6.6E-4                   -0.00191                 0                        1.0260488191346677
-6.100000000000001E-4     -0.00191                 0                        1.1435079915959614
-5.6E-4                   -0.00191                 0                        1.1537913253369563
-5.1E-4                   -0.00191                 0                        1.1080962517789714
-4.599999999999999E-4     -0.00191                 0                        1.0528000095903796
-4.1E-4                   -0.00191                 0                        0.9358810679189008
-3.600000000000001E-4     -0.00191                 0                        0.7772510635060662
-3.0999999999999995E-4    -0.00191                 0                        0.6400938030763238
-2.6000000000000003E-4    -0.00191                 0                        0.5349392625856146
-2.099999999999999E-4     -0.00191                 0                        0.45072836962899193
-1.5999999999999999E-4    -0.00191                 0                        0.3875543984183276
-1.1000000000000007E-4    -0.00191                 0                        0.33891340732121894
-5.999999999999994E-5     -0.00191                 0                        0.2976914742771354
-1.0000000000000026E-5    -0.00191                 0                        0.2644844923069254
4.0000000000000105E-5     -0.00191                 0                        0.23677335627227533
9.000000000000024E-5      -0.00191                 0                        0.21286273374973913
1.3999999999999993E-4     -0.00191                 0                        0.1923272731510524
1.9000000000000006E-4     -0.00191                 0                        0.17432271415598322
2.400000000000002E-4      -0.00191                 0                        0.1580986927341149
2.899999999999999E-4      -0.00191                 0                        0.1432054713459946
3.4E-4                    -0.00191                 0                        0.12975888152175943
3.9000000000000016E-4     -0.00191                 0                        0.11795689268126151
4.3999999999999985E-4     -0.00191                 0                        0.11150909987642489
4.9E-4                    -0.00191                 0                        0.10586223078899454
5.400000000000001E-4      -0.00191                 0                        0.1006377899106535
5.900000000000002E-4      -0.00191                 0                        0.09557614881241959
6.399999999999999E-4      -0.00191                 0                        0.08690309491309246
6.900000000000001E-4      -0.00191                 0                        0.07842717249116316
7.400000000000002E-4      -0.00191                 0                        0.07045058097140965
7.899999999999999E-4      -0.00191                 0                        0.06295481835374424
8.4E-4                    -0.00191                 0                        0.05600853903320058
8.900000000000002E-4      -0.00191                 0                        0.04957545535754704
9.399999999999999E-4      -0.00191                 0                        0.04429582711557543
9.9E-4                    -0.00191                 0                        0.04251863943498725
0.0010400000000000001     -0.00191                 0                        0.04084875295457991
0.0010900000000000003     -0.00191                 0                        0.039268963014683814
0.00114                   -0.00191                 0                        0.03774507973916534
0.00119                   -0.00191                 0                        0.03621340867757912
0.0012400000000000002     -0.00191                 0                        0.03467827651535703
0.00129                   -0.00191                 0                        0.03317960031042747
0.00134                   -0.00191                 0                        0.031701229355904186
0.0013900000000000002     -0.00191                 0                        0.030308123779915663
0.0014400000000000003     -0.00191                 0                        0.02897860496806077
0.00149                   -0.00191                 0                        0.027707586188512153
0.0015400000000000001     -0.00191                 0                        0.026497243659727963
0.0015900000000000003     -0.00191                 0                        0.025348001590335872
0.00164                   -0.00191                 0                        0.02425296265821424
0.00169                   -0.00191                 0                        0.023195037262113735
0.0017400000000000002     -0.00191                 0                        0.02218974937436031
0.00179                   -0.00191                 0                        0.021227209223411585
0.00184                   -0.00191                 0                        0.020310171806582906
0.0018900000000000002     -0.00191                 0                        0.019438637123874287
0.0019400000000000003     -0.00191                 0                        0.018604452378615976
0.00199                   -0.00191                 0                        0.017803422675515625
-0.00201                  -0.00186                 0                        0.08191567913836188
-0.00196                  -0.00186                 0                        0.0871039032110047
-0.00191                  -0.00186                 0                        0.09268641948160976
-0.00186                  -0.00186                 0                        0.09861629806765213
-0.00181                  -0.00186                 0                        0.10513018183588796
-0.00176                  -0.00186                 0                        0.11239569489353307
-0.0017100000000000001    -0.00186                 0                        0.12041283724058745
-0.00166                  -0.00186                 0                        0.12918160887705119
-0.00161                  -0.00186                 0                        0.13889246506770805
-0.00156                  -0.00186                 0                        0.1497111578204289
-0.00151                  -0.00186                 0                        0.1618843492486597
-0.00146                  -0.00186                 0                        0.1754635667005306
-0.00141                  -0.00186                 0                        0.19091065860707218
-0.00136                  -0.00186                 0                        0.20834013946193974
-0.00131                  -0.00186                 0                        0.22923189271764038
-0.00126                  -0.00186                 0                        0.25220434315022117
-0.0012100000000000001    -0.00186                 0                        0.2722665153248388
-0.00116                  -0.00186                 0                        0.2856793973719639
-0.0011099999999999999    -0.00186                 0                        0.2828850652025535
-0.0010600000000000002    -0.00186                 0                        0.27860967200586634
-0.00101                  -0.00186                 0                        0.3338465163017679
-9.599999999999999E-4     -0.00186                 0                        0.49802221621832377
-9.1E-4                   -0.00186                 0                        0.6585278037434983
-8.600000000000001E-4     -0.00186                 0                        0.815705560132031
-8.1E-4                   -0.00186                 0                        0.9668911323043216
-7.6E-4                   -0.00186                 0                        1.111735281104071
-7.099999999999999E-4     -0.00186                 0                        1.159049449649741
-6.6E-4                   -0.00186                 0                        1.115105720907258
-6.100000000000001E-4     -0.00186                 0                        1.071783201332497
-5.6E-4                   -0.00186                 0                        1.0267628999459084
-5.1E-4                   -0.00186                 0                        0.972547686543825
-4.599999999999999E-4     -0.00186                 0                        0.9044060074733604
-4.1E-4                   -0.00186                 0                        0.8145079087974425
-3.600000000000001E-4     -0.00186                 0                        0.7044424615906837
-3.0999999999999995E-4    -0.00186                 0                        0.6028976872476081
-2.6000000000000003E-4    -0.00186                 0                        0.5151111485012531
-2.099999999999999E-4     -0.00186                 0                        0.4407914298609527
-1.5999999999999999E-4    -0.00186                 0                        0.3816683989446291
-1.1000000000000007E-4    -0.00186                 0                        0.3349035486729726
-5.999999999999994E-5     -0.00186                 0                        0.2948218441202557
-1.0000000000000026E-5    -0.00186                 0                        0.2621719599893819
4.0000000000000105E-5     -0.00186                 0                        0.23507164597444827
9.000000000000024E-5      -0.00186                 0                        0.21129519013245057
1.3999999999999993E-4     -0.00186                 0                        0.19106790653673833
1.9000000000000006E-4     -0.00186                 0                        0.17345084870046956
2.400000000000002E-4      -0.00186                 0                        0.1575870814614735
2.899999999999999E-4      -0.00186                 0                        0.14355859896034356
3.4E-4                    -0.00186                 0                        0.13132078162609934
3.9000000000000016E-4     -0.00186                 0                        0.12069857329302251
4.3999999999999985E-4     -0.00186                 0                        0.11225412255369133
4.9E-4                    -0.00186                 0                        0.10567253140645073
5.400000000000001E-4      -0.00186                 0                        0.09980807108528301
5.900000000000002E-4      -0.00186                 0                        0.09429726484741567
6.399999999999999E-4      -0.00186                 0                        0.08926749335143092
6.900000000000001E-4      -0.00186                 0                        0.08463543495573002
7.400000000000002E-4      -0.00186                 0                        0.07998176476897996
7.899999999999999E-4      -0.00186                 0                        0.07177739420024751
8.4E-4                    -0.00186                 0                        0.06413241919031638
8.900000000000002E-4      -0.00186                 0                        0.05711397885884819
9.399999999999999E-4      -0.00186                 0                        0.05065687065136414
9.9E-4                    -0.00186                 0                        0.04465359106092744
0.0010400000000000001     -0.00186                 0                        0.04018035707409517
0.0010900000000000003     -0.00186                 0                        0.03878795459160106
0.00114                   -0.00186                 0                        0.037500586658017476
0.00119                   -0.00186                 0                        0.03607747339982881
0.0012400000000000002     -0.00186                 0                        0.03455709706966464