% Model:              cuff_3d_14electrodes_4mm_nerve.mph
% Version:            COMSOL 5.3.0.260
% Date:               Apr 27 2020, 14:11
% Dimension:          3
% Nodes:              6561
% Expressions:        1
% Description:        Electric potential
% Length unit:        m
% X                       Y                        Z                        V (V)
-0.00201                  -0.00201                 0                        0.009659008903940143
-0.00196                  -0.00201                 0                        0.009747880718841409
-0.00191                  -0.00201                 0                        0.00982606949507911
-0.00186                  -0.00201                 0                        0.009892730567446259
-0.00181                  -0.00201                 0                        0.009950469274594316
-0.00176                  -0.00201                 0                        0.009997451910223939
-0.0017100000000000001    -0.00201                 0                        0.010031800772502509
-0.00166                  -0.00201                 0                        0.010056018416798849
-0.00161                  -0.00201                 0                        0.010070500692249101
-0.00156                  -0.00201                 0                        0.010074479536266145
-0.00151                  -0.00201                 0                        0.010069174912466493
-0.00146                  -0.00201                 0                        0.01005383574637461
-0.00141                  -0.00201                 0                        0.010030351004491202
-0.00136                  -0.00201                 0                        0.009996291774164116
-0.00131                  -0.00201                 0                        0.009952092234833716
-0.00126                  -0.00201                 0                        0.00989401481204696
-0.0012100000000000001    -0.00201                 0                        0.00981412118622052
-0.00116                  -0.00201                 0                        0.009718232017598557
-0.0011099999999999999    -0.00201                 0                        0.009602492275995092
-0.0010600000000000002    -0.00201                 0                        0.00947087371335628
-0.00101                  -0.00201                 0                        0.009323684144828918
-9.599999999999999E-4     -0.00201                 0                        0.00916442288978047
-9.1E-4                   -0.00201                 0                        0.009000436360414803
-8.600000000000001E-4     -0.00201                 0                        0.008832774527751455
-8.1E-4                   -0.00201                 0                        0.008668049840957839
-7.6E-4                   -0.00201                 0                        0.008501638160022359
-7.099999999999999E-4     -0.00201                 0                        0.008338189950118462
-6.6E-4                   -0.00201                 0                        0.008595712235362186
-6.100000000000001E-4     -0.00201                 0                        0.009109340896487236
-5.6E-4                   -0.00201                 0                        0.009508586270188316
-5.1E-4                   -0.00201                 0                        0.009788868699667783
-4.599999999999999E-4     -0.00201                 0                        0.009906436313920394
-4.1E-4                   -0.00201                 0                        0.009743609941282481
-3.600000000000001E-4     -0.00201                 0                        0.010124827111534613
-3.0999999999999995E-4    -0.00201                 0                        0.010568181085518815
-2.6000000000000003E-4    -0.00201                 0                        0.01089293196967009
-2.099999999999999E-4     -0.00201                 0                        0.011079624277950683
-1.5999999999999999E-4    -0.00201                 0                        0.011174785051578226
-1.1000000000000007E-4    -0.00201                 0                        0.011195687867508602
-5.999999999999994E-5     -0.00201                 0                        0.011158823980088772
-1.0000000000000026E-5    -0.00201                 0                        0.011046209978833096
4.0000000000000105E-5     -0.00201                 0                        0.01087708232108564
9.000000000000024E-5      -0.00201                 0                        0.010633282634864738
1.3999999999999993E-4     -0.00201                 0                        0.010355043416956762
1.9000000000000006E-4     -0.00201                 0                        0.0100086125448699
2.400000000000002E-4      -0.00201                 0                        0.009583921800860953
2.899999999999999E-4      -0.00201                 0                        0.009066867618011409
3.4E-4                    -0.00201                 0                        0.008410703385387108
3.9000000000000016E-4     -0.00201                 0                        0.007796880981500996
4.3999999999999985E-4     -0.00201                 0                        0.00765131237779586
4.9E-4                    -0.00201                 0                        0.007411875052223096
5.400000000000001E-4      -0.00201                 0                        0.007015221731149739
5.900000000000002E-4      -0.00201                 0                        0.006504866827022622
6.399999999999999E-4      -0.00201                 0                        0.005959468285767723
6.900000000000001E-4      -0.00201                 0                        0.005386817184531078
7.400000000000002E-4      -0.00201                 0                        0.005331346838398285
7.899999999999999E-4      -0.00201                 0                        0.005280071563839731
8.4E-4                    -0.00201                 0                        0.005235729049202968
8.900000000000002E-4      -0.00201                 0                        0.005195686480138592
9.399999999999999E-4      -0.00201                 0                        0.005154004813250044
9.9E-4                    -0.00201                 0                        0.005106929262789257
0.0010400000000000001     -0.00201                 0                        0.005056076651377052
0.0010900000000000003     -0.00201                 0                        0.005004176323659714
0.00114                   -0.00201                 0                        0.004946820487574122
0.00119                   -0.00201                 0                        0.004878924446038503
0.0012400000000000002     -0.00201                 0                        0.004803784421309034
0.00129                   -0.00201                 0                        0.0047221154987907585
0.00134                   -0.00201                 0                        0.004635780562214924
0.0013900000000000002     -0.00201                 0                        0.004546403869224542
0.0014400000000000003     -0.00201                 0                        0.0044558327894119645
0.00149                   -0.00201                 0                        0.0043636535183919556
0.0015400000000000001     -0.00201                 0                        0.004271470400597908
0.0015900000000000003     -0.00201                 0                        0.004180027286887695
0.00164                   -0.00201                 0                        0.00408856230768128
0.00169                   -0.00201                 0                        0.003996464673533602
0.0017400000000000002     -0.00201                 0                        0.003905328182726843
0.00179                   -0.00201                 0                        0.003813525120236309
0.00184                   -0.00201                 0                        0.0037212900988577205
0.0018900000000000002     -0.00201                 0                        0.003629364065044768
0.0019400000000000003     -0.00201                 0                        0.0035378540408235004
0.00199                   -0.00201                 0                        0.0034458718042770266
-0.00201                  -0.00196                 0                        0.010060790074793168
-0.00196                  -0.00196                 0                        0.010151011847268021
-0.00191                  -0.00196                 0                        0.01023041460010641
-0.00186                  -0.00196                 0                        0.010299847742517887
-0.00181                  -0.00196                 0                        0.010356216673701329
-0.00176                  -0.00196                 0                        0.010399524341251708
-0.0017100000000000001    -0.00196                 0                        0.010429770745169025
-0.00166                  -0.00196                 0                        0.010450060942393175
-0.00161                  -0.00196                 0                        0.010461004470902065
-0.00156                  -0.00196                 0                        0.010459114811822216
-0.00151                  -0.00196                 0                        0.010449408840548458
-0.00146                  -0.00196                 0                        0.010428916258760326
-0.00141                  -0.00196                 0                        0.010399698144099277
-0.00136                  -0.00196                 0                        0.01035908526839771
-0.00131                  -0.00196                 0                        0.010309432098032308
-0.00126                  -0.00196                 0                        0.010245827040555183
-0.0012100000000000001    -0.00196                 0                        0.010157629814748274
-0.00116                  -0.00196                 0                        0.010041479847450602
-0.0011099999999999999    -0.00196                 0                        0.009899858951730664
-0.0010600000000000002    -0.00196                 0                        0.009733304407151021
-0.00101                  -0.00196                 0                        0.009545641951046136
-9.599999999999999E-4     -0.00196                 0                        0.009349434290735753
-9.1E-4                   -0.00196                 0                        0.009158352575333775
-8.600000000000001E-4     -0.00196                 0                        0.008966382730186922
-8.1E-4                   -0.00196                 0                        0.008964319393217094
-7.6E-4                   -0.00196                 0                        0.00963768539757956
-7.099999999999999E-4     -0.00196                 0                        0.010271523653427013
-6.6E-4                   -0.00196                 0                        0.010847271656463599
-6.100000000000001E-4     -0.00196                 0                        0.011351395351225875
-5.6E-4                   -0.00196                 0                        0.011728089425471846
-5.1E-4                   -0.00196                 0                        0.011935060107186254
-4.599999999999999E-4     -0.00196                 0                        0.011849272875034442
-4.1E-4                   -0.00196                 0                        0.01110418749805355
-3.600000000000001E-4     -0.00196                 0                        0.011444725195478438
-3.0999999999999995E-4    -0.00196                 0                        0.01195172021130277
-2.6000000000000003E-4    -0.00196                 0                        0.012033198449710819
-2.099999999999999E-4     -0.00196                 0                        0.012016626177636968
-1.5999999999999999E-4    -0.00196                 0                        0.011937939645724241
-1.1000000000000007E-4    -0.00196                 0                        0.011828885432689323
-5.999999999999994E-5     -0.00196                 0                        0.011696609556782768
-1.0000000000000026E-5    -0.00196                 0                        0.011541623100574844
4.0000000000000105E-5     -0.00196                 0                        0.01137328444306814
9.000000000000024E-5      -0.00196                 0                        0.011191464525350123
1.3999999999999993E-4     -0.00196                 0                        0.010994587820427334
1.9000000000000006E-4     -0.00196                 0                        0.010776755069866042
2.400000000000002E-4      -0.00196                 0                        0.010513483543149951
2.899999999999999E-4      -0.00196                 0                        0.010157524148613185
3.4E-4                    -0.00196                 0                        0.00961605598376479
3.9000000000000016E-4     -0.00196                 0                        0.008774567466443738
4.3999999999999985E-4     -0.00196                 0                        0.009091208673030753
4.9E-4                    -0.00196                 0                        0.009008376964304494
5.400000000000001E-4      -0.00196                 0                        0.008649499619413237
5.900000000000002E-4      -0.00196                 0                        0.008151719702210632
6.399999999999999E-4      -0.00196                 0                        0.0075898305278799365
6.900000000000001E-4      -0.00196                 0                        0.006983805696205667
7.400000000000002E-4      -0.00196                 0                        0.006335041010424763
7.899999999999999E-4      -0.00196                 0                        0.005673135732027457
8.4E-4                    -0.00196                 0                        0.005247570674470967
8.900000000000002E-4      -0.00196                 0                        0.005219843141004945
9.399999999999999E-4      -0.00196                 0                        0.005193408770222224
9.9E-4                    -0.00196                 0                        0.005163995451955911
0.0010400000000000001     -0.00196                 0                        0.005132092993961965
0.0010900000000000003     -0.00196                 0                        0.005094469471812462
0.00114                   -0.00196                 0                        0.005050774357679491
0.00119                   -0.00196                 0                        0.0049886899703120305
0.0012400000000000002     -0.00196                 0                        0.004916049817792763
0.00129                   -0.00196                 0                        0.004836694678840253
0.00134                   -0.00196                 0                        0.004749516394429289
0.0013900000000000002     -0.00196                 0                        0.004659223911523605
0.0014400000000000003     -0.00196                 0                        0.004567114398579985
0.00149                   -0.00196                 0                        0.0044731268219623645
0.0015400000000000001     -0.00196                 0                        0.004378814416682233
0.0015900000000000003     -0.00196                 0                        0.0042857040190551
0.00164                   -0.00196                 0                        0.00419312441091019
0.00169                   -0.00196                 0                        0.0041007242335402375
0.0017400000000000002     -0.00196                 0                        0.004007580022140849
0.00179                   -0.00196                 0                        0.003912715286567431
0.00184                   -0.00196                 0                        0.00381864589485894
0.0018900000000000002     -0.00196                 0                        0.0037254447403399166
0.0019400000000000003     -0.00196                 0                        0.0036322490255449548
0.00199                   -0.00196                 0                        0.003538388752429761
-0.00201                  -0.00191                 0                        0.010479254802087931
-0.00196                  -0.00191                 0                        0.010571999878711102
-0.00191                  -0.00191                 0                        0.010650926139914661
-0.00186                  -0.00191                 0                        0.010717906127376392
-0.00181                  -0.00191                 0                        0.010771454257144352
-0.00176                  -0.00191                 0                        0.010811869222920299
-0.0017100000000000001    -0.00191                 0                        0.01083864994154921
-0.00166                  -0.00191                 0                        0.010853042565295193
-0.00161                  -0.00191                 0                        0.010860144240521844
-0.00156                  -0.00191                 0                        0.01085397777639506
-0.00151                  -0.00191                 0                        0.010835792560388649
-0.00146                  -0.00191                 0                        0.010809191520446666
-0.00141                  -0.00191                 0                        0.010769927618469817
-0.00136                  -0.00191                 0                        0.01072259075229998
-0.00131                  -0.00191                 0                        0.010665839730493681
-0.00126                  -0.00191                 0                        0.010595860235725545
-0.0012100000000000001    -0.00191                 0                        0.01050537892590101
-0.00116                  -0.00191                 0                        0.01037036495294785
-0.0011099999999999999    -0.00191                 0                        0.010179096851323895
-0.0010600000000000002    -0.00191                 0                        0.009967439632256108
-0.00101                  -0.00191                 0                        0.009739127227254125
-9.599999999999999E-4     -0.00191                 0                        0.009505979147963545
-9.1E-4                   -0.00191                 0                        0.009722449920464074
-8.600000000000001E-4     -0.00191                 0                        0.010522450576395649
-8.1E-4                   -0.00191                 0                        0.011284778798460134
-7.6E-4                   -0.00191                 0                        0.01201158409374664
-7.099999999999999E-4     -0.00191                 0                        0.012683406135161222
-6.6E-4                   -0.00191                 0                        0.013267690842230916
-6.100000000000001E-4     -0.00191                 0                        0.013739038131233729
-5.6E-4                   -0.00191                 0                        0.013626710381320023
-5.1E-4                   -0.00191                 0                        0.013219373871335168
-4.599999999999999E-4     -0.00191                 0                        0.012713987471967971
-4.1E-4                   -0.00191                 0                        0.012249231380116864
-3.600000000000001E-4     -0.00191                 0                        0.01211479854778804
-3.0999999999999995E-4    -0.00191                 0                        0.012187866677452277
-2.6000000000000003E-4    -0.00191                 0                        0.012222040684520331
-2.099999999999999E-4     -0.00191                 0                        0.012199436576483005
-1.5999999999999999E-4    -0.00191                 0                        0.012116783059522667
-1.1000000000000007E-4    -0.00191                 0                        0.011998722841753844
-5.999999999999994E-5     -0.00191                 0                        0.011867432060299853
-1.0000000000000026E-5    -0.00191                 0                        0.011713969599236563
4.0000000000000105E-5     -0.00191                 0                        0.01153657175928029
9.000000000000024E-5      -0.00191                 0                        0.011345917098147782
1.3999999999999993E-4     -0.00191                 0                        0.011140401772764721
1.9000000000000006E-4     -0.00191                 0                        0.01091034209455821
2.400000000000002E-4      -0.00191                 0                        0.010638727005350717
2.899999999999999E-4      -0.00191                 0                        0.010300479356115048
3.4E-4                    -0.00191                 0                        0.009954962530806464
3.9000000000000016E-4     -0.00191                 0                        0.009616087570095088
4.3999999999999985E-4     -0.00191                 0                        0.00969712636520728
4.9E-4                    -0.00191                 0                        0.009796778908708658
5.400000000000001E-4      -0.00191                 0                        0.009868399885227365
5.900000000000002E-4      -0.00191                 0                        0.009892671466458768
6.399999999999999E-4      -0.00191                 0                        0.009331790118282151
6.900000000000001E-4      -0.00191                 0                        0.008680022841665922
7.400000000000002E-4      -0.00191                 0                        0.007983469943392904
7.899999999999999E-4      -0.00191                 0                        0.007264010472130563
8.4E-4                    -0.00191                 0                        0.006536820380282454
8.900000000000002E-4      -0.00191                 0                        0.005806826581408139
9.399999999999999E-4      -0.00191                 0                        0.005204980344296178
9.9E-4                    -0.00191                 0                        0.005195450546047962
0.0010400000000000001     -0.00191                 0                        0.005185720684947887
0.0010900000000000003     -0.00191                 0                        0.005172795860975312
0.00114                   -0.00191                 0                        0.005149068605935132
0.00119                   -0.00191                 0                        0.005099934497653268
0.0012400000000000002     -0.00191                 0                        0.005030253137539217
0.00129                   -0.00191                 0                        0.004949414969393745
0.00134                   -0.00191                 0                        0.004855255998764828
0.0013900000000000002     -0.00191                 0                        0.004764753053697681
0.0014400000000000003     -0.00191                 0                        0.004672983609229761
0.00149                   -0.00191                 0                        0.004579168919198634
0.0015400000000000001     -0.00191                 0                        0.004485079579557551
0.0015900000000000003     -0.00191                 0                        0.004391735149240447
0.00164                   -0.00191                 0                        0.004298668509154834
0.00169                   -0.00191                 0                        0.004202100718637724
0.0017400000000000002     -0.00191                 0                        0.004107527795164999
0.00179                   -0.00191                 0                        0.00401181394013853
0.00184                   -0.00191                 0                        0.003916488182550492
0.0018900000000000002     -0.00191                 0                        0.003821550522400888
0.0019400000000000003     -0.00191                 0                        0.0037265899738910865
0.00199                   -0.00191                 0                        0.0036309963206394465
-0.00201                  -0.00186                 0                        0.010913088484751718
-0.00196                  -0.00186                 0                        0.011005616775453348
-0.00191                  -0.00186                 0                        0.011085715164286487
-0.00186                  -0.00186                 0                        0.011149232454612345
-0.00181                  -0.00186                 0                        0.01119857823684967
-0.00176                  -0.00186                 0                        0.011234790855094979
-0.0017100000000000001    -0.00186                 0                        0.011257870309348267
-0.00166                  -0.00186                 0                        0.011267816599609555
-0.00161                  -0.00186                 0                        0.011268429262769162
-0.00156                  -0.00186                 0                        0.01125198454835056
-0.00151                  -0.00186                 0                        0.01122411579395844
-0.00146                  -0.00186                 0                        0.011183730992513647
-0.00141                  -0.00186                 0                        0.011132987322095247
-0.00136                  -0.00186                 0                        0.011075720138790959
-0.00131                  -0.00186                 0                        0.0110204328130508
-0.00126                  -0.00186                 0                        0.010961091923849572
-0.0012100000000000001    -0.00186                 0                        0.01086975249523862
-0.00116                  -0.00186                 0                        0.010725689028574526
-0.0011099999999999999    -0.00186                 0                        0.01046564478510073
-0.0010600000000000002    -0.00186                 0                        0.010188940908918304
-0.00101                  -0.00186                 0                        0.010311678378168211
-9.599999999999999E-4     -0.00186                 0                        0.011193224699639267
-9.1E-4                   -0.00186                 0                        0.012063396740971373
-8.600000000000001E-4     -0.00186                 0                        0.012950609242969997
-8.1E-4                   -0.00186                 0                        0.013786380899020094
-7.6E-4                   -0.00186                 0                        0.014562738964542417
-7.099999999999999E-4     -0.00186                 0                        0.014776785040206636
-6.6E-4                   -0.00186                 0                        0.0144765321541078
-6.100000000000001E-4     -0.00186                 0                        0.01417520116167233
-5.6E-4                   -0.00186                 0                        0.013858546025976299
-5.1E-4                   -0.00186                 0                        0.013525323383087685
-4.599999999999999E-4     -0.00186                 0                        0.013185729990570886
-4.1E-4                   -0.00186                 0                        0.012913104950793517
-3.600000000000001E-4     -0.00186                 0                        0.012746743512514529
-3.0999999999999995E-4    -0.00186                 0                        0.012654767586077892
-2.6000000000000003E-4    -0.00186                 0                        0.012603125803764348
-2.099999999999999E-4     -0.00186                 0                        0.012533840316734228
-1.5999999999999999E-4    -0.00186                 0                        0.012438266606141507
-1.1000000000000007E-4    -0.00186                 0                        0.012302640369087776
-5.999999999999994E-5     -0.00186                 0                        0.0121601018665837
-1.0000000000000026E-5    -0.00186                 0                        0.012003275810182098
4.0000000000000105E-5     -0.00186                 0                        0.011820296937244311
9.000000000000024E-5      -0.00186                 0                        0.01162207797028538
1.3999999999999993E-4     -0.00186                 0                        0.011409146829423487
1.9000000000000006E-4     -0.00186                 0                        0.011174912245261938
2.400000000000002E-4      -0.00186                 0                        0.01091277134056939
2.899999999999999E-4      -0.00186                 0                        0.010628570464759632
3.4E-4                    -0.00186                 0                        0.010377590762815267
3.9000000000000016E-4     -0.00186                 0                        0.010154618530494753
4.3999999999999985E-4     -0.00186                 0                        0.010031155747942777
4.9E-4                    -0.00186                 0                        0.010014448155515259
5.400000000000001E-4      -0.00186                 0                        0.009995930900487521
5.900000000000002E-4      -0.00186                 0                        0.009951312854312297
6.399999999999999E-4      -0.00186                 0                        0.009901726314470862
6.900000000000001E-4      -0.00186                 0                        0.009849134648700792
7.400000000000002E-4      -0.00186                 0                        0.009725293488157333
7.899999999999999E-4      -0.00186                 0                        0.00894376904852893
8.4E-4                    -0.00186                 0                        0.008140392876430848
8.900000000000002E-4      -0.00186                 0                        0.007344218126137041
9.399999999999999E-4      -0.00186                 0                        0.0065580453833074
9.9E-4                    -0.00186                 0                        0.005773368951904014
0.0010400000000000001     -0.00186                 0                        0.005215574165854798