% Model:              cuff_3d_14electrodes_4mm_nerve.mph
% Version:            COMSOL 5.3.0.260
% Date:               Apr 27 2020, 13:57
% Dimension:          3
% Nodes:              6561
% Expressions:        1
% Description:        Electric potential
% Length unit:        m
% X                       Y                        Z                        V (V)
-0.00201                  -0.00201                 0                        0.0043856888916716345
-0.00196                  -0.00201                 0                        0.0045366852258049255
-0.00191                  -0.00201                 0                        0.0046905787776502245
-0.00186                  -0.00201                 0                        0.00484726851508859
-0.00181                  -0.00201                 0                        0.005008429175024208
-0.00176                  -0.00201                 0                        0.005173566061137183
-0.0017100000000000001    -0.00201                 0                        0.005341655988682734
-0.00166                  -0.00201                 0                        0.005512861074345052
-0.00161                  -0.00201                 0                        0.005687305595966637
-0.00156                  -0.00201                 0                        0.005865795728201244
-0.00151                  -0.00201                 0                        0.0060488075569416705
-0.00146                  -0.00201                 0                        0.006235654856885171
-0.00141                  -0.00201                 0                        0.006426749451890771
-0.00136                  -0.00201                 0                        0.006620605592980695
-0.00131                  -0.00201                 0                        0.006817617325896506
-0.00126                  -0.00201                 0                        0.00701436380175941
-0.0012100000000000001    -0.00201                 0                        0.007204191439728064
-0.00116                  -0.00201                 0                        0.0073917862582473315
-0.0011099999999999999    -0.00201                 0                        0.007574037985361496
-0.0010600000000000002    -0.00201                 0                        0.007753238707351367
-0.00101                  -0.00201                 0                        0.007929622095833033
-9.599999999999999E-4     -0.00201                 0                        0.008104498191822167
-9.1E-4                   -0.00201                 0                        0.008284601652756095
-8.600000000000001E-4     -0.00201                 0                        0.00847063470914582
-8.1E-4                   -0.00201                 0                        0.008667590842044371
-7.6E-4                   -0.00201                 0                        0.008870848005282409
-7.099999999999999E-4     -0.00201                 0                        0.009086803732817055
-6.6E-4                   -0.00201                 0                        0.009777121665683147
-6.100000000000001E-4     -0.00201                 0                        0.010796131087172959
-5.6E-4                   -0.00201                 0                        0.011740528871596743
-5.1E-4                   -0.00201                 0                        0.012605913600090533
-4.599999999999999E-4     -0.00201                 0                        0.013351191012190098
-4.1E-4                   -0.00201                 0                        0.013753861623846349
-3.600000000000001E-4     -0.00201                 0                        0.014597969969178604
-3.0999999999999995E-4    -0.00201                 0                        0.01597680723724057
-2.6000000000000003E-4    -0.00201                 0                        0.017170475344196367
-2.099999999999999E-4     -0.00201                 0                        0.018192578118629368
-1.5999999999999999E-4    -0.00201                 0                        0.019123491640721215
-1.1000000000000007E-4    -0.00201                 0                        0.01996619813927382
-5.999999999999994E-5     -0.00201                 0                        0.020750801565765205
-1.0000000000000026E-5    -0.00201                 0                        0.02143540930297656
4.0000000000000105E-5     -0.00201                 0                        0.022039639456833147
9.000000000000024E-5      -0.00201                 0                        0.022530954815568396
1.3999999999999993E-4     -0.00201                 0                        0.022966474333767174
1.9000000000000006E-4     -0.00201                 0                        0.02327683369301393
2.400000000000002E-4      -0.00201                 0                        0.02342866178901909
2.899999999999999E-4      -0.00201                 0                        0.02339556371823256
3.4E-4                    -0.00201                 0                        0.023092283072465535
3.9000000000000016E-4     -0.00201                 0                        0.02277216950215392
4.3999999999999985E-4     -0.00201                 0                        0.022994966313840834
4.9E-4                    -0.00201                 0                        0.02358483986327038
5.400000000000001E-4      -0.00201                 0                        0.02364993505473672
5.900000000000002E-4      -0.00201                 0                        0.023364604538649362
6.399999999999999E-4      -0.00201                 0                        0.0229078079023951
6.900000000000001E-4      -0.00201                 0                        0.022302554870153785
7.400000000000002E-4      -0.00201                 0                        0.023100530551999007
7.899999999999999E-4      -0.00201                 0                        0.023917684431568352
8.4E-4                    -0.00201                 0                        0.024762965066697812
8.900000000000002E-4      -0.00201                 0                        0.025633751868917507
9.399999999999999E-4      -0.00201                 0                        0.026505941751067224
9.9E-4                    -0.00201                 0                        0.027359401505344407
0.0010400000000000001     -0.00201                 0                        0.028196218406314807
0.0010900000000000003     -0.00201                 0                        0.0290210335421868
0.00114                   -0.00201                 0                        0.029816146089337317
0.00119                   -0.00201                 0                        0.03055615998957518
0.0012400000000000002     -0.00201                 0                        0.03124444272612656
0.00129                   -0.00201                 0                        0.031885491817695205
0.00134                   -0.00201                 0                        0.03248226335100893
0.0013900000000000002     -0.00201                 0                        0.03303521521374438
0.0014400000000000003     -0.00201                 0                        0.03355547493237807
0.00149                   -0.00201                 0                        0.034032184083847464
0.0015400000000000001     -0.00201                 0                        0.03446894172803564
0.0015900000000000003     -0.00201                 0                        0.034856959384384795
0.00164                   -0.00201                 0                        0.03519212635761185
0.00169                   -0.00201                 0                        0.03548079687791485
0.0017400000000000002     -0.00201                 0                        0.03571583134779288
0.00179                   -0.00201                 0                        0.03587594085986229
0.00184                   -0.00201                 0                        0.03597880068212296
0.0018900000000000002     -0.00201                 0                        0.036030303761060006
0.0019400000000000003     -0.00201                 0                        0.036033578663175046
0.00199                   -0.00201                 0                        0.035967460902752116
-0.00201                  -0.00196                 0                        0.004466193708559191
-0.00196                  -0.00196                 0                        0.004619222109324762
-0.00191                  -0.00196                 0                        0.004775137517564263
-0.00186                  -0.00196                 0                        0.004935108769190363
-0.00181                  -0.00196                 0                        0.005098084439693139
-0.00176                  -0.00196                 0                        0.00526406475473724
-0.0017100000000000001    -0.00196                 0                        0.005433049714322667
-0.00166                  -0.00196                 0                        0.005605618043361236
-0.00161                  -0.00196                 0                        0.00578153333070121
-0.00156                  -0.00196                 0                        0.00596115838747272
-0.00151                  -0.00196                 0                        0.006146274357104874
-0.00146                  -0.00196                 0                        0.0063349617783985575
-0.00141                  -0.00196                 0                        0.006528279999166165
-0.00136                  -0.00196                 0                        0.006723736965443017
-0.00131                  -0.00196                 0                        0.006923105493788908
-0.00126                  -0.00196                 0                        0.007121657506849636
-0.0012100000000000001    -0.00196                 0                        0.007311252860302901
-0.00116                  -0.00196                 0                        0.00748924212086932
-0.0011099999999999999    -0.00196                 0                        0.00765690900718005
-0.0010600000000000002    -0.00196                 0                        0.00781419276792769
-0.00101                  -0.00196                 0                        0.00796409278369117
-9.599999999999999E-4     -0.00196                 0                        0.008113943574911337
-9.1E-4                   -0.00196                 0                        0.008276211709552648
-8.600000000000001E-4     -0.00196                 0                        0.00844657415279033
-8.1E-4                   -0.00196                 0                        0.008814940355884775
-7.6E-4                   -0.00196                 0                        0.009900734732705054
-7.099999999999999E-4     -0.00196                 0                        0.011003507513770263
-6.6E-4                   -0.00196                 0                        0.012102317577613425
-6.100000000000001E-4     -0.00196                 0                        0.013182531032723935
-5.6E-4                   -0.00196                 0                        0.0141768484142046
-5.1E-4                   -0.00196                 0                        0.015028734893893423
-4.599999999999999E-4     -0.00196                 0                        0.015590499695326452
-4.1E-4                   -0.00196                 0                        0.015390364661588845
-3.600000000000001E-4     -0.00196                 0                        0.016350533016499323
-3.0999999999999995E-4    -0.00196                 0                        0.017826179099044066
-2.6000000000000003E-4    -0.00196                 0                        0.018724324854695485
-2.099999999999999E-4     -0.00196                 0                        0.019507115400691305
-1.5999999999999999E-4    -0.00196                 0                        0.0202261847686517
-1.1000000000000007E-4    -0.00196                 0                        0.020917252753814876
-5.999999999999994E-5     -0.00196                 0                        0.02160004004671359
-1.0000000000000026E-5    -0.00196                 0                        0.022265668659240692
4.0000000000000105E-5     -0.00196                 0                        0.022928357411930184
9.000000000000024E-5      -0.00196                 0                        0.023580138520937027
1.3999999999999993E-4     -0.00196                 0                        0.024227073707331927
1.9000000000000006E-4     -0.00196                 0                        0.02484993539217519
2.400000000000002E-4      -0.00196                 0                        0.025396334458727833
2.899999999999999E-4      -0.00196                 0                        0.02575765724863403
3.4E-4                    -0.00196                 0                        0.025755694814683313
3.9000000000000016E-4     -0.00196                 0                        0.024961660926857775
4.3999999999999985E-4     -0.00196                 0                        0.02671370668075867
4.9E-4                    -0.00196                 0                        0.027750783810621366
5.400000000000001E-4      -0.00196                 0                        0.02804705064619485
5.900000000000002E-4      -0.00196                 0                        0.027956055128700495
6.399999999999999E-4      -0.00196                 0                        0.027617765066175012
6.900000000000001E-4      -0.00196                 0                        0.02708728066711887
7.400000000000002E-4      -0.00196                 0                        0.026360011778290088
7.899999999999999E-4      -0.00196                 0                        0.02549480940573574
8.4E-4                    -0.00196                 0                        0.02524800701601697
8.900000000000002E-4      -0.00196                 0                        0.026205276944720066
9.399999999999999E-4      -0.00196                 0                        0.027178198843955528
9.9E-4                    -0.00196                 0                        0.028145489016864127
0.0010400000000000001     -0.00196                 0                        0.02910911454543303
0.0010900000000000003     -0.00196                 0                        0.030044973563212028
0.00114                   -0.00196                 0                        0.030950428103257422
0.00119                   -0.00196                 0                        0.03176845905703462
0.0012400000000000002     -0.00196                 0                        0.032524537059152515
0.00129                   -0.00196                 0                        0.03323091869034436
0.00134                   -0.00196                 0                        0.03388401905451014
0.0013900000000000002     -0.00196                 0                        0.03450005792653741
0.0014400000000000003     -0.00196                 0                        0.03507098522941901
0.00149                   -0.00196                 0                        0.03559510405958642
0.0015400000000000001     -0.00196                 0                        0.03607325389503112
0.0015900000000000003     -0.00196                 0                        0.03650374094951263
0.00164                   -0.00196                 0                        0.036883769819728296
0.00169                   -0.00196                 0                        0.037211839338847204
0.0017400000000000002     -0.00196                 0                        0.037468498892432534
0.00179                   -0.00196                 0                        0.03765690274578816
0.00184                   -0.00196                 0                        0.03779231496044699
0.0018900000000000002     -0.00196                 0                        0.03787301710841795
0.0019400000000000003     -0.00196                 0                        0.03789364080463292
0.00199                   -0.00196                 0                        0.0378306040822046
-0.00201                  -0.00191                 0                        0.004544421922130952
-0.00196                  -0.00191                 0                        0.00469973422101285
-0.00191                  -0.00191                 0                        0.004857752871161959
-0.00186                  -0.00191                 0                        0.005018715575647538
-0.00181                  -0.00191                 0                        0.00518240719072125
-0.00176                  -0.00191                 0                        0.005349280219157839
-0.0017100000000000001    -0.00191                 0                        0.005519154893543698
-0.00166                  -0.00191                 0                        0.005692236853546063
-0.00161                  -0.00191                 0                        0.005869592643030852
-0.00156                  -0.00191                 0                        0.006051593710525469
-0.00151                  -0.00191                 0                        0.0062360587719226136
-0.00146                  -0.00191                 0                        0.0064263756297046086
-0.00141                  -0.00191                 0                        0.006619216401125208
-0.00136                  -0.00191                 0                        0.006816366298046993
-0.00131                  -0.00191                 0                        0.007016897252113435
-0.00126                  -0.00191                 0                        0.007216763568908926
-0.0012100000000000001    -0.00191                 0                        0.007410167620631174
-0.00116                  -0.00191                 0                        0.007578549385746173
-0.0011099999999999999    -0.00191                 0                        0.007713703402808964
-0.0010600000000000002    -0.00191                 0                        0.00784113354440525
-0.00101                  -0.00191                 0                        0.007964392409153887
-9.599999999999999E-4     -0.00191                 0                        0.008088177902633902
-9.1E-4                   -0.00191                 0                        0.008642713463322623
-8.600000000000001E-4     -0.00191                 0                        0.009787091959559636
-8.1E-4                   -0.00191                 0                        0.010960454830151397
-7.6E-4                   -0.00191                 0                        0.01216128519027934
-7.099999999999999E-4     -0.00191                 0                        0.013371871738268265
-6.6E-4                   -0.00191                 0                        0.014556370650021667
-6.100000000000001E-4     -0.00191                 0                        0.015676451526203634
-5.6E-4                   -0.00191                 0                        0.0161861514819169
-5.1E-4                   -0.00191                 0                        0.016377338664405307
-4.599999999999999E-4     -0.00191                 0                        0.016463581707666
-4.1E-4                   -0.00191                 0                        0.01658801161603899
-3.600000000000001E-4     -0.00191                 0                        0.01714371565492967
-3.0999999999999995E-4    -0.00191                 0                        0.018020287470175488
-2.6000000000000003E-4    -0.00191                 0                        0.01887333676371763
-2.099999999999999E-4     -0.00191                 0                        0.019674139445004707
-1.5999999999999999E-4    -0.00191                 0                        0.020409494639060832
-1.1000000000000007E-4    -0.00191                 0                        0.02111923341167269
-5.999999999999994E-5     -0.00191                 0                        0.021833656196817958
-1.0000000000000026E-5    -0.00191                 0                        0.022533500599500888
4.0000000000000105E-5     -0.00191                 0                        0.02321395775615087
9.000000000000024E-5      -0.00191                 0                        0.023890990297620488
1.3999999999999993E-4     -0.00191                 0                        0.0245601716915812
1.9000000000000006E-4     -0.00191                 0                        0.025195410945057766
2.400000000000002E-4      -0.00191                 0                        0.025764130214562968
2.899999999999999E-4      -0.00191                 0                        0.026211305929961917
3.4E-4                    -0.00191                 0                        0.026643305970171654
3.9000000000000016E-4     -0.00191                 0                        0.02707291597806278
4.3999999999999985E-4     -0.00191                 0                        0.02848504995616439
4.9E-4                    -0.00191                 0                        0.02999464322036132
5.400000000000001E-4      -0.00191                 0                        0.03147823138901594
5.900000000000002E-4      -0.00191                 0                        0.03287481008510349
6.399999999999999E-4      -0.00191                 0                        0.0327230932529485
6.900000000000001E-4      -0.00191                 0                        0.032258942546644166
7.400000000000002E-4      -0.00191                 0                        0.0315761128423202
7.899999999999999E-4      -0.00191                 0                        0.030719744441419967
8.4E-4                    -0.00191                 0                        0.029722909163983742
8.900000000000002E-4      -0.00191                 0                        0.02860289100396843
9.399999999999999E-4      -0.00191                 0                        0.027768882810805796
9.9E-4                    -0.00191                 0                        0.028860755126841317
0.0010400000000000001     -0.00191                 0                        0.029963508593380143
0.0010900000000000003     -0.00191                 0                        0.031055847368913033
0.00114                   -0.00191                 0                        0.032100940173784336
0.00119                   -0.00191                 0                        0.033026660203532225
0.0012400000000000002     -0.00191                 0                        0.03385410462711783
0.00129                   -0.00191                 0                        0.034617690540085254
0.00134                   -0.00191                 0                        0.03530701226709391
0.0013900000000000002     -0.00191                 0                        0.035987004161467884
0.0014400000000000003     -0.00191                 0                        0.03662704172020968
0.00149                   -0.00191                 0                        0.03721605378881132
0.0015400000000000001     -0.00191                 0                        0.037752773911430386
0.0015900000000000003     -0.00191                 0                        0.038244808067036416
0.00164                   -0.00191                 0                        0.03868385861370472
0.00169                   -0.00191                 0                        0.03904385086848114
0.0017400000000000002     -0.00191                 0                        0.03933661106906401
0.00179                   -0.00191                 0                        0.03955925648876945
0.00184                   -0.00191                 0                        0.03972156237016263
0.0018900000000000002     -0.00191                 0                        0.03982352871324356
0.0019400000000000003     -0.00191                 0                        0.03985728653644713
0.00199                   -0.00191                 0                        0.0398045788103069
-0.00201                  -0.00186                 0                        0.004620322067258627
-0.00196                  -0.00186                 0                        0.004776830584900369
-0.00191                  -0.00186                 0                        0.004936837543437652
-0.00186                  -0.00186                 0                        0.005098303874404561
-0.00181                  -0.00186                 0                        0.00526233243460931
-0.00176                  -0.00186                 0                        0.005429542408176936
-0.0017100000000000001    -0.00186                 0                        0.005599933795107437
-0.00166                  -0.00186                 0                        0.005773506595400823
-0.00161                  -0.00186                 0                        0.005952039460899081
-0.00156                  -0.00186                 0                        0.006131538859738802
-0.00151                  -0.00186                 0                        0.006315039526744673
-0.00146                  -0.00186                 0                        0.006501864125653631
-0.00141                  -0.00186                 0                        0.006693180753515546
-0.00136                  -0.00186                 0                        0.006890095243996004
-0.00131                  -0.00186                 0                        0.007099271783729174
-0.00126                  -0.00186                 0                        0.007313797586019191
-0.0012100000000000001    -0.00186                 0                        0.007511885036318163
-0.00116                  -0.00186                 0                        0.0076764610978536305
-0.0011099999999999999    -0.00186                 0                        0.007764082352560316
-0.0010600000000000002    -0.00186                 0                        0.007846965501353626
-0.00101                  -0.00186                 0                        0.008286685940847274
-9.599999999999999E-4     -0.00186                 0                        0.009434271794158774
-9.1E-4                   -0.00186                 0                        0.010635800610451954
-8.600000000000001E-4     -0.00186                 0                        0.011917617765479432
-8.1E-4                   -0.00186                 0                        0.013222644898107034
-7.6E-4                   -0.00186                 0                        0.014538658337802109
-7.099999999999999E-4     -0.00186                 0                        0.015344977967968465
-6.6E-4                   -0.00186                 0                        0.01564549840074468
-6.100000000000001E-4     -0.00186                 0                        0.015955017246667775
-5.6E-4                   -0.00186                 0                        0.016257643446182572
-5.1E-4                   -0.00186                 0                        0.01655688719078845
-4.599999999999999E-4     -0.00186                 0                        0.016861952044172596
-4.1E-4                   -0.00186                 0                        0.01726880887518704
-3.600000000000001E-4     -0.00186                 0                        0.01782866646445195
-3.0999999999999995E-4    -0.00186                 0                        0.01851141550217575
-2.6000000000000003E-4    -0.00186                 0                        0.019274743616897846
-2.099999999999999E-4     -0.00186                 0                        0.02004239886004938
-1.5999999999999999E-4    -0.00186                 0                        0.020794939035646765
-1.1000000000000007E-4    -0.00186                 0                        0.021514405725575204
-5.999999999999994E-5     -0.00186                 0                        0.022248762707555263
-1.0000000000000026E-5    -0.00186                 0                        0.02298164123913405
4.0000000000000105E-5     -0.00186                 0                        0.023697986270467097
9.000000000000024E-5      -0.00186                 0                        0.024405826271853902
1.3999999999999993E-4     -0.00186                 0                        0.02510747599260432
1.9000000000000006E-4     -0.00186                 0                        0.02578793880577412
2.400000000000002E-4      -0.00186                 0                        0.026429018733141487
2.899999999999999E-4      -0.00186                 0                        0.027044059904622175
3.4E-4                    -0.00186                 0                        0.027741996916450424
3.9000000000000016E-4     -0.00186                 0                        0.02851845516435139
4.3999999999999985E-4     -0.00186                 0                        0.02953257036880325
4.9E-4                    -0.00186                 0                        0.03083280977275702
5.400000000000001E-4      -0.00186                 0                        0.032152876510642074
5.900000000000002E-4      -0.00186                 0                        0.033437605539276105
6.399999999999999E-4      -0.00186                 0                        0.03473507388768431
6.900000000000001E-4      -0.00186                 0                        0.036049861534889066
7.400000000000002E-4      -0.00186                 0                        0.03717937771733553
7.899999999999999E-4      -0.00186                 0                        0.03634062930680928
8.4E-4                    -0.00186                 0                        0.03531618609005209
8.900000000000002E-4      -0.00186                 0                        0.03416880675606866
9.399999999999999E-4      -0.00186                 0                        0.03291283957261596
9.9E-4                    -0.00186                 0                        0.03150978637638104
0.0010400000000000001     -0.00186                 0                        0.030748960478216444
0.0010900000000000003     -0.00186                 0                        0.032030209855042