% Model:              cuff_3d_14electrodes_4mm_nerve.mph
% Version:            COMSOL 5.3.0.260
% Date:               Apr 27 2020, 14:11
% Dimension:          3
% Nodes:              6561
% Expressions:        1
% Description:        Electric potential
% Length unit:        m
% X                       Y                        Z                        V (V)
-0.00201                  -0.00201                 0                        0.017355869417411882
-0.00196                  -0.00201                 0                        0.017442210860009355
-0.00191                  -0.00201                 0                        0.017504403690665464
-0.00186                  -0.00201                 0                        0.017541633421738492
-0.00181                  -0.00201                 0                        0.017559782686383977
-0.00176                  -0.00201                 0                        0.01755466193176501
-0.0017100000000000001    -0.00201                 0                        0.01752285780305859
-0.00166                  -0.00201                 0                        0.017469972516561634
-0.00161                  -0.00201                 0                        0.01739688789499457
-0.00156                  -0.00201                 0                        0.017302722052859786
-0.00151                  -0.00201                 0                        0.017190193830763867
-0.00146                  -0.00201                 0                        0.017058145801783303
-0.00141                  -0.00201                 0                        0.016910445099862507
-0.00136                  -0.00201                 0                        0.016743784752143304
-0.00131                  -0.00201                 0                        0.016559028488539122
-0.00126                  -0.00201                 0                        0.016351946626442685
-0.0012100000000000001    -0.00201                 0                        0.016112001357910917
-0.00116                  -0.00201                 0                        0.015847576865682098
-0.0011099999999999999    -0.00201                 0                        0.01555334774219476
-0.0010600000000000002    -0.00201                 0                        0.015236473951616715
-0.00101                  -0.00201                 0                        0.014897399110102605
-9.599999999999999E-4     -0.00201                 0                        0.01454209168266876
-9.1E-4                   -0.00201                 0                        0.014181425860028319
-8.600000000000001E-4     -0.00201                 0                        0.013816960924797499
-8.1E-4                   -0.00201                 0                        0.013459091879408306
-7.6E-4                   -0.00201                 0                        0.013101629220652347
-7.099999999999999E-4     -0.00201                 0                        0.012751184087741094
-6.6E-4                   -0.00201                 0                        0.012969499314250245
-6.100000000000001E-4     -0.00201                 0                        0.01352725103605319
-5.6E-4                   -0.00201                 0                        0.013925813483867355
-5.1E-4                   -0.00201                 0                        0.014160154425887675
-4.599999999999999E-4     -0.00201                 0                        0.014169104397709232
-4.1E-4                   -0.00201                 0                        0.013814290838535777
-3.600000000000001E-4     -0.00201                 0                        0.014240694203430881
-3.0999999999999995E-4    -0.00201                 0                        0.014661179452276057
-2.6000000000000003E-4    -0.00201                 0                        0.014940308867276158
-2.099999999999999E-4     -0.00201                 0                        0.015046636473055744
-1.5999999999999999E-4    -0.00201                 0                        0.015037996797716741
-1.1000000000000007E-4    -0.00201                 0                        0.014938465931665042
-5.999999999999994E-5     -0.00201                 0                        0.014769001835327457
-1.0000000000000026E-5    -0.00201                 0                        0.014509332106197799
4.0000000000000105E-5     -0.00201                 0                        0.01418393233667966
9.000000000000024E-5      -0.00201                 0                        0.013770906092957506
1.3999999999999993E-4     -0.00201                 0                        0.013321928186594046
1.9000000000000006E-4     -0.00201                 0                        0.012795260383823759
2.400000000000002E-4      -0.00201                 0                        0.012180332285460373
2.899999999999999E-4      -0.00201                 0                        0.011459922483303464
3.4E-4                    -0.00201                 0                        0.010575866795367189
3.9000000000000016E-4     -0.00201                 0                        0.009755327775082203
4.3999999999999985E-4     -0.00201                 0                        0.009541576053198648
4.9E-4                    -0.00201                 0                        0.009175383529544315
5.400000000000001E-4      -0.00201                 0                        0.00863844899111866
5.900000000000002E-4      -0.00201                 0                        0.007977851475986363
6.399999999999999E-4      -0.00201                 0                        0.007285513748054947
6.900000000000001E-4      -0.00201                 0                        0.006570005912882056
7.400000000000002E-4      -0.00201                 0                        0.006455896973206101
7.899999999999999E-4      -0.00201                 0                        0.0063488728631085605
8.4E-4                    -0.00201                 0                        0.006252101862863588
8.900000000000002E-4      -0.00201                 0                        0.0061619791047752386
9.399999999999999E-4      -0.00201                 0                        0.006071939732764251
9.9E-4                    -0.00201                 0                        0.005977594738276594
0.0010400000000000001     -0.00201                 0                        0.005881016340289387
0.0010900000000000003     -0.00201                 0                        0.00578528068218046
0.00114                   -0.00201                 0                        0.0056854030865620174
0.00119                   -0.00201                 0                        0.005575866496473705
0.0012400000000000002     -0.00201                 0                        0.00546013222013912
0.00129                   -0.00201                 0                        0.005339010364244844
0.00134                   -0.00201                 0                        0.005214488448708569
0.0013900000000000002     -0.00201                 0                        0.005088282982399225
0.0014400000000000003     -0.00201                 0                        0.004962460195724169
0.00149                   -0.00201                 0                        0.004836507463297759
0.0015400000000000001     -0.00201                 0                        0.004712129852175369
0.0015900000000000003     -0.00201                 0                        0.004590073177382331
0.00164                   -0.00201                 0                        0.004469445164816498
0.00169                   -0.00201                 0                        0.0043494692533040565
0.0017400000000000002     -0.00201                 0                        0.004232154687252585
0.00179                   -0.00201                 0                        0.004115525928491062
0.00184                   -0.00201                 0                        0.003999678899556551
0.0018900000000000002     -0.00201                 0                        0.0038854980272925365
0.0019400000000000003     -0.00201                 0                        0.003772960137381365
0.00199                   -0.00201                 0                        0.0036610742709178765
-0.00201                  -0.00196                 0                        0.018150128604099747
-0.00196                  -0.00196                 0                        0.0182352763288976
-0.00191                  -0.00196                 0                        0.01829593133340435
-0.00186                  -0.00196                 0                        0.018334302153551054
-0.00181                  -0.00196                 0                        0.01834502308017172
-0.00176                  -0.00196                 0                        0.018328100177037114
-0.0017100000000000001    -0.00196                 0                        0.018283533444147237
-0.00166                  -0.00196                 0                        0.01821843130348181
-0.00161                  -0.00196                 0                        0.018134035118899574
-0.00156                  -0.00196                 0                        0.01802332579538843
-0.00151                  -0.00196                 0                        0.017896462089938562
-0.00146                  -0.00196                 0                        0.017748973383876845
-0.00141                  -0.00196                 0                        0.01758419950487898
-0.00136                  -0.00196                 0                        0.017399080569742178
-0.00131                  -0.00196                 0                        0.017197428867382104
-0.00126                  -0.00196                 0                        0.016973756178147868
-0.0012100000000000001    -0.00196                 0                        0.016713399544752313
-0.00116                  -0.00196                 0                        0.0164114298890431
-0.0011099999999999999    -0.00196                 0                        0.016072216022102744
-0.0010600000000000002    -0.00196                 0                        0.015697198654711714
-0.00101                  -0.00196                 0                        0.015291947637834364
-9.599999999999999E-4     -0.00196                 0                        0.014876211854790457
-9.1E-4                   -0.00196                 0                        0.014470074885740926
-8.600000000000001E-4     -0.00196                 0                        0.014064577377328517
-8.1E-4                   -0.00196                 0                        0.013921900153564239
-7.6E-4                   -0.00196                 0                        0.014698659262430493
-7.099999999999999E-4     -0.00196                 0                        0.015412187371232351
-6.6E-4                   -0.00196                 0                        0.016040760631538913
-6.100000000000001E-4     -0.00196                 0                        0.016565440233329457
-5.6E-4                   -0.00196                 0                        0.016913458599177773
-5.1E-4                   -0.00196                 0                        0.01703246717498435
-4.599999999999999E-4     -0.00196                 0                        0.016758847769423605
-4.1E-4                   -0.00196                 0                        0.01561607709286166
-3.600000000000001E-4     -0.00196                 0                        0.01595295696102216
-3.0999999999999995E-4    -0.00196                 0                        0.016453076174035897
-2.6000000000000003E-4    -0.00196                 0                        0.016411744065810464
-2.099999999999999E-4     -0.00196                 0                        0.01624927570806522
-1.5999999999999999E-4    -0.00196                 0                        0.016011606487971702
-1.1000000000000007E-4    -0.00196                 0                        0.015740122857435757
-5.999999999999994E-5     -0.00196                 0                        0.01544381819643999
-1.0000000000000026E-5    -0.00196                 0                        0.01512421662342459
4.0000000000000105E-5     -0.00196                 0                        0.014792920856288458
9.000000000000024E-5      -0.00196                 0                        0.014450736951870012
1.3999999999999993E-4     -0.00196                 0                        0.014095049093212336
1.9000000000000006E-4     -0.00196                 0                        0.013718853982282096
2.400000000000002E-4      -0.00196                 0                        0.013292864982194052
2.899999999999999E-4      -0.00196                 0                        0.01276121355843133
3.4E-4                    -0.00196                 0                        0.01201057143824259
3.9000000000000016E-4     -0.00196                 0                        0.010918691132936508
4.3999999999999985E-4     -0.00196                 0                        0.011214973361707537
4.9E-4                    -0.00196                 0                        0.011028234060615772
5.400000000000001E-4      -0.00196                 0                        0.010527649812887742
5.900000000000002E-4      -0.00196                 0                        0.009872680379069325
6.399999999999999E-4      -0.00196                 0                        0.009152562236166652
6.900000000000001E-4      -0.00196                 0                        0.008390353895048785
7.400000000000002E-4      -0.00196                 0                        0.007587737834527861
7.899999999999999E-4      -0.00196                 0                        0.006778766140319554
8.4E-4                    -0.00196                 0                        0.0062470252447637455
8.900000000000002E-4      -0.00196                 0                        0.00617077494513864
9.399999999999999E-4      -0.00196                 0                        0.006097721916988211
9.9E-4                    -0.00196                 0                        0.006022983462333537
0.0010400000000000001     -0.00196                 0                        0.005947244294490815
0.0010900000000000003     -0.00196                 0                        0.0058670524667790635
0.00114                   -0.00196                 0                        0.005782015690804451
0.00119                   -0.00196                 0                        0.005678727482235739
0.0012400000000000002     -0.00196                 0                        0.0055656292884718565
0.00129                   -0.00196                 0                        0.0054469046626907415
0.00134                   -0.00196                 0                        0.005321355075102596
0.0013900000000000002     -0.00196                 0                        0.0051940454454633125
0.0014400000000000003     -0.00196                 0                        0.005066378648055677
0.00149                   -0.00196                 0                        0.004938286610491788
0.0015400000000000001     -0.00196                 0                        0.004811455730498945
0.0015900000000000003     -0.00196                 0                        0.004687461427365906
0.00164                   -0.00196                 0                        0.004565559682101126
0.00169                   -0.00196                 0                        0.004445288982673527
0.0017400000000000002     -0.00196                 0                        0.004325765810069372
0.00179                   -0.00196                 0                        0.004205771872283173
0.00184                   -0.00196                 0                        0.004087984435617617
0.0018900000000000002     -0.00196                 0                        0.003972472792965701
0.0019400000000000003     -0.00196                 0                        0.0038582003264897463
0.00199                   -0.00196                 0                        0.003744507567550546
-0.00201                  -0.00191                 0                        0.018983975782495235
-0.00196                  -0.00191                 0                        0.01907056955937771
-0.00191                  -0.00191                 0                        0.019126394596026223
-0.00186                  -0.00191                 0                        0.019155088683890924
-0.00181                  -0.00191                 0                        0.01915568140385697
-0.00176                  -0.00191                 0                        0.019128586068574996
-0.0017100000000000001    -0.00191                 0                        0.019072672465410317
-0.00166                  -0.00191                 0                        0.018990701910137485
-0.00161                  -0.00191                 0                        0.01889433894129423
-0.00156                  -0.00191                 0                        0.018768881396304088
-0.00151                  -0.00191                 0                        0.018621087673789703
-0.00146                  -0.00191                 0                        0.018455180999022283
-0.00141                  -0.00191                 0                        0.018265544729388083
-0.00136                  -0.00191                 0                        0.018061383044921615
-0.00131                  -0.00191                 0                        0.017840412954575172
-0.00126                  -0.00191                 0                        0.01759859004798617
-0.0012100000000000001    -0.00191                 0                        0.01732567236548739
-0.00116                  -0.00191                 0                        0.01698781937720485
-0.0011099999999999999    -0.00191                 0                        0.016568083873913182
-0.0010600000000000002    -0.00191                 0                        0.016119671498714357
-0.00101                  -0.00191                 0                        0.015647977955397116
-9.599999999999999E-4     -0.00191                 0                        0.015171913630395249
-9.1E-4                   -0.00191                 0                        0.015321597458438165
-8.600000000000001E-4     -0.00191                 0                        0.016272726131349193
-8.1E-4                   -0.00191                 0                        0.017160786189243264
-7.6E-4                   -0.00191                 0                        0.01798858825794955
-7.099999999999999E-4     -0.00191                 0                        0.018730795724253985
-6.6E-4                   -0.00191                 0                        0.019346811667428583
-6.100000000000001E-4     -0.00191                 0                        0.019805392767215553
-5.6E-4                   -0.00191                 0                        0.01948282920959041
-5.1E-4                   -0.00191                 0                        0.01877228116600901
-4.599999999999999E-4     -0.00191                 0                        0.017937688197711316
-4.1E-4                   -0.00191                 0                        0.017167898347996313
-3.600000000000001E-4     -0.00191                 0                        0.016837743192214552
-3.0999999999999995E-4    -0.00191                 0                        0.016776700044917884
-2.6000000000000003E-4    -0.00191                 0                        0.016668594164827116
-2.099999999999999E-4     -0.00191                 0                        0.01649233494559739
-1.5999999999999999E-4    -0.00191                 0                        0.016244391865678755
-1.1000000000000007E-4    -0.00191                 0                        0.01595578380233332
-5.999999999999994E-5     -0.00191                 0                        0.015656024441828117
-1.0000000000000026E-5    -0.00191                 0                        0.015333637289031025
4.0000000000000105E-5     -0.00191                 0                        0.014987145740021579
9.000000000000024E-5      -0.00191                 0                        0.014629748696220355
1.3999999999999993E-4     -0.00191                 0                        0.014260056343412385
1.9000000000000006E-4     -0.00191                 0                        0.013866300527632996
2.400000000000002E-4      -0.00191                 0                        0.013427702105088087
2.899999999999999E-4      -0.00191                 0                        0.012914497721119196
3.4E-4                    -0.00191                 0                        0.012399099241304737
3.9000000000000016E-4     -0.00191                 0                        0.011899413933175515
4.3999999999999985E-4     -0.00191                 0                        0.011902342613244972
4.9E-4                    -0.00191                 0                        0.011928531921861885
5.400000000000001E-4      -0.00191                 0                        0.011924495637085537
5.900000000000002E-4      -0.00191                 0                        0.011868034115388717
6.399999999999999E-4      -0.00191                 0                        0.011139576495438517
6.900000000000001E-4      -0.00191                 0                        0.010315631917795548
7.400000000000002E-4      -0.00191                 0                        0.009450326050935301
7.899999999999999E-4      -0.00191                 0                        0.008568447658140875
8.4E-4                    -0.00191                 0                        0.0076874704446046405
8.900000000000002E-4      -0.00191                 0                        0.006812452262407589
9.399999999999999E-4      -0.00191                 0                        0.006090379255751185
9.9E-4                    -0.00191                 0                        0.006037981168328284
0.0010400000000000001     -0.00191                 0                        0.0059867905673209295
0.0010900000000000003     -0.00191                 0                        0.00593369017172972
0.00114                   -0.00191                 0                        0.005870468154413443
0.00119                   -0.00191                 0                        0.005781446923403033
0.0012400000000000002     -0.00191                 0                        0.005671620205104438
0.00129                   -0.00191                 0                        0.005551301166454937
0.00134                   -0.00191                 0                        0.005418082914245293
0.0013900000000000002     -0.00191                 0                        0.0052903754179519915
0.0014400000000000003     -0.00191                 0                        0.005162905141746097
0.00149                   -0.00191                 0                        0.005034827215100093
0.0015400000000000001     -0.00191                 0                        0.004908133773404916
0.0015900000000000003     -0.00191                 0                        0.004783829884549225
0.00164                   -0.00191                 0                        0.004661340258096607
0.00169                   -0.00191                 0                        0.004536619961420773
0.0017400000000000002     -0.00191                 0                        0.004415471879652699
0.00179                   -0.00191                 0                        0.004294595914475923
0.00184                   -0.00191                 0                        0.004175515603404056
0.0018900000000000002     -0.00191                 0                        0.004058230946437101
0.0019400000000000003     -0.00191                 0                        0.00394223015434785
0.00199                   -0.00191                 0                        0.003826877149290735
-0.00201                  -0.00186                 0                        0.01985504081206255
-0.00196                  -0.00186                 0                        0.019938048410515788
-0.00191                  -0.00186                 0                        0.01999185622041194
-0.00186                  -0.00186                 0                        0.02000950786991514
-0.00181                  -0.00186                 0                        0.019996974848191514
-0.00176                  -0.00186                 0                        0.019956753771219866
-0.0017100000000000001    -0.00186                 0                        0.019888844639000206
-0.00166                  -0.00186                 0                        0.019793247451532554
-0.00161                  -0.00186                 0                        0.019677595805090858
-0.00156                  -0.00186                 0                        0.019529142886229697
-0.00151                  -0.00186                 0                        0.019357710628102282
-0.00146                  -0.00186                 0                        0.01916152223202684
-0.00141                  -0.00186                 0                        0.01894470469764977
-0.00136                  -0.00186                 0                        0.018715555988394843
-0.00131                  -0.00186                 0                        0.01848596226896598
-0.00126                  -0.00186                 0                        0.018248985327045643
-0.0012100000000000001    -0.00186                 0                        0.01796559664585033
-0.00116                  -0.00186                 0                        0.01760650076717741
-0.0011099999999999999    -0.00186                 0                        0.017078395224069946
-0.0010600000000000002    -0.00186                 0                        0.01652701131748715
-0.00101                  -0.00186                 0                        0.01653918324121649
-9.599999999999999E-4     -0.00186                 0                        0.017609411960346856
-9.1E-4                   -0.00186                 0                        0.018647301946498527
-8.600000000000001E-4     -0.00186                 0                        0.019694630146526913
-8.1E-4                   -0.00186                 0                        0.020659136327434238
-7.6E-4                   -0.00186                 0                        0.02153145614346823
-7.099999999999999E-4     -0.00186                 0                        0.021630752062151412
-6.6E-4                   -0.00186                 0                        0.021034976183355633
-6.100000000000001E-4     -0.00186                 0                        0.02044343395905921
-5.6E-4                   -0.00186                 0                        0.01983771025116616
-5.1E-4                   -0.00186                 0                        0.019215800781272635
-4.599999999999999E-4     -0.00186                 0                        0.018592075596468693
-4.1E-4                   -0.00186                 0                        0.018062116168593902
-3.600000000000001E-4     -0.00186                 0                        0.017677396192180936
-3.0999999999999995E-4    -0.00186                 0                        0.017394511590827437
-2.6000000000000003E-4    -0.00186                 0                        0.01716848715831771
-2.099999999999999E-4     -0.00186                 0                        0.016924813936207934
-1.5999999999999999E-4    -0.00186                 0                        0.016653180264203662
-1.1000000000000007E-4    -0.00186                 0                        0.01633609252512563
-5.999999999999994E-5     -0.00186                 0                        0.016016217449827484
-1.0000000000000026E-5    -0.00186                 0                        0.01568424557619856
4.0000000000000105E-5     -0.00186                 0                        0.01532563238920397
9.000000000000024E-5      -0.00186                 0                        0.01495432568946446
1.3999999999999993E-4     -0.00186                 0                        0.014570956979432743
1.9000000000000006E-4     -0.00186                 0                        0.014167859789681091
2.400000000000002E-4      -0.00186                 0                        0.013737193834560747
2.899999999999999E-4      -0.00186                 0                        0.013285741891130826
3.4E-4                    -0.00186                 0                        0.012880075823724272
3.9000000000000016E-4     -0.00186                 0                        0.012513493150138957
4.3999999999999985E-4     -0.00186                 0                        0.012270915078456512
4.9E-4                    -0.00186                 0                        0.012157802977148557
5.400000000000001E-4      -0.00186                 0                        0.012046998914734888
5.900000000000002E-4      -0.00186                 0                        0.011908972262258795
6.399999999999999E-4      -0.00186                 0                        0.011768797712118927
6.900000000000001E-4      -0.00186                 0                        0.011628504335107518
7.400000000000002E-4      -0.00186                 0                        0.011410426358447703
7.899999999999999E-4      -0.00186                 0                        0.010449610475017038
8.4E-4                    -0.00186                 0                        0.009474835659832473
8.900000000000002E-4      -0.00186                 0                        0.0085189754651651
9.399999999999999E-4      -0.00186                 0                        0.007584302305075501
9.9E-4                    -0.00186                 0                        0.006660744236760519
0.0010400000000000001     -0.00186                 0                        0.0059984025680214865
0.0010900000000000003     -0.00186                 0                        0.005980520594163596