% Model:              cuff_3d_14electrodes_4mm_nerve.mph
% Version:            COMSOL 5.3.0.260
% Date:               Apr 27 2020, 14:13
% Dimension:          3
% Nodes:              6561
% Expressions:        1
% Description:        Electric potential
% Length unit:        m
% X                       Y                        Z                        V (V)
-0.00201                  -0.00201                 0                        0.07923834849604074
-0.00196                  -0.00201                 0                        0.08024920319814154
-0.00191                  -0.00201                 0                        0.08109058850910808
-0.00186                  -0.00201                 0                        0.0817185939168224
-0.00181                  -0.00201                 0                        0.08211219184954571
-0.00176                  -0.00201                 0                        0.08220703841842081
-0.0017100000000000001    -0.00201                 0                        0.08200293245219908
-0.00166                  -0.00201                 0                        0.08161764525150822
-0.00161                  -0.00201                 0                        0.08104597775782463
-0.00156                  -0.00201                 0                        0.08022574517127525
-0.00151                  -0.00201                 0                        0.07920424604265054
-0.00146                  -0.00201                 0                        0.0779782234503429
-0.00141                  -0.00201                 0                        0.07660487032525275
-0.00136                  -0.00201                 0                        0.07506936780127307
-0.00131                  -0.00201                 0                        0.0733812546534464
-0.00126                  -0.00201                 0                        0.07155970901756857
-0.0012100000000000001    -0.00201                 0                        0.06958262612395769
-0.00116                  -0.00201                 0                        0.06748318292922273
-0.0011099999999999999    -0.00201                 0                        0.06524625773321065
-0.0010600000000000002    -0.00201                 0                        0.06293749209030601
-0.00101                  -0.00201                 0                        0.06055831604117057
-9.599999999999999E-4     -0.00201                 0                        0.058148487275568275
-9.1E-4                   -0.00201                 0                        0.055756353275631255
-8.600000000000001E-4     -0.00201                 0                        0.053388712302343024
-8.1E-4                   -0.00201                 0                        0.051097486779654956
-7.6E-4                   -0.00201                 0                        0.04886339608487477
-7.099999999999999E-4     -0.00201                 0                        0.04670849615262865
-6.6E-4                   -0.00201                 0                        0.04622757336733178
-6.100000000000001E-4     -0.00201                 0                        0.04666768968671139
-5.6E-4                   -0.00201                 0                        0.046611996997040786
-5.1E-4                   -0.00201                 0                        0.0460756841773226
-4.599999999999999E-4     -0.00201                 0                        0.044870033836061314
-4.1E-4                   -0.00201                 0                        0.042777692816175036
-3.600000000000001E-4     -0.00201                 0                        0.04329626529515489
-3.0999999999999995E-4    -0.00201                 0                        0.04313426194045039
-2.6000000000000003E-4    -0.00201                 0                        0.04274233201424611
-2.099999999999999E-4     -0.00201                 0                        0.04199941673638328
-1.5999999999999999E-4    -0.00201                 0                        0.04103607144902807
-1.1000000000000007E-4    -0.00201                 0                        0.03991273272470074
-5.999999999999994E-5     -0.00201                 0                        0.03867856013878125
-1.0000000000000026E-5    -0.00201                 0                        0.03730587467307178
4.0000000000000105E-5     -0.00201                 0                        0.035841968613348034
9.000000000000024E-5      -0.00201                 0                        0.03424243302966437
1.3999999999999993E-4     -0.00201                 0                        0.03262830963496953
1.9000000000000006E-4     -0.00201                 0                        0.0309045945405972
2.400000000000002E-4      -0.00201                 0                        0.029056421575062545
2.899999999999999E-4      -0.00201                 0                        0.027044887509208082
3.4E-4                    -0.00201                 0                        0.024738567207588793
3.9000000000000016E-4     -0.00201                 0                        0.022634486418677165
4.3999999999999985E-4     -0.00201                 0                        0.021998052876885173
4.9E-4                    -0.00201                 0                        0.020840686626607284
5.400000000000001E-4      -0.00201                 0                        0.019443329474947074
5.900000000000002E-4      -0.00201                 0                        0.01787167375788652
6.399999999999999E-4      -0.00201                 0                        0.016290833396049333
6.900000000000001E-4      -0.00201                 0                        0.014712036044480086
7.400000000000002E-4      -0.00201                 0                        0.014240377369809246
7.899999999999999E-4      -0.00201                 0                        0.013797667869605573
8.4E-4                    -0.00201                 0                        0.013389259490429253
8.900000000000002E-4      -0.00201                 0                        0.013005440253735139
9.399999999999999E-4      -0.00201                 0                        0.012635017909049494
9.9E-4                    -0.00201                 0                        0.012269025453072315
0.0010400000000000001     -0.00201                 0                        0.011911666098550364
0.0010900000000000003     -0.00201                 0                        0.01156777926558377
0.00114                   -0.00201                 0                        0.011228441929612266
0.00119                   -0.00201                 0                        0.010884704335540531
0.0012400000000000002     -0.00201                 0                        0.010540310846386694
0.00129                   -0.00201                 0                        0.010196955869297628
0.00134                   -0.00201                 0                        0.009857316773999569
0.0013900000000000002     -0.00201                 0                        0.009523191220497967
0.0014400000000000003     -0.00201                 0                        0.009198324773655913
0.00149                   -0.00201                 0                        0.008881167237466061
0.0015400000000000001     -0.00201                 0                        0.008574142556863708
0.0015900000000000003     -0.00201                 0                        0.008277452335565746
0.00164                   -0.00201                 0                        0.007989324953056374
0.00169                   -0.00201                 0                        0.007708433955034089
0.0017400000000000002     -0.00201                 0                        0.007438800540276857
0.00179                   -0.00201                 0                        0.007175835731394038
0.00184                   -0.00201                 0                        0.006919324738537267
0.0018900000000000002     -0.00201                 0                        0.006671074021872954
0.0019400000000000003     -0.00201                 0                        0.006430310219658466
0.00199                   -0.00201                 0                        0.006194867583544831
-0.00201                  -0.00196                 0                        0.08408729338265626
-0.00196                  -0.00196                 0                        0.08523329188573438
-0.00191                  -0.00196                 0                        0.08620854935164804
-0.00186                  -0.00196                 0                        0.0869459621486512
-0.00181                  -0.00196                 0                        0.08734496204189698
-0.00176                  -0.00196                 0                        0.08740573537304042
-0.0017100000000000001    -0.00196                 0                        0.08712828214208146
-0.00166                  -0.00196                 0                        0.08666813148136172
-0.00161                  -0.00196                 0                        0.08604241309978897
-0.00156                  -0.00196                 0                        0.08505471688084221
-0.00151                  -0.00196                 0                        0.08387652770211902
-0.00146                  -0.00196                 0                        0.08248784322278502
-0.00141                  -0.00196                 0                        0.08091126214637187
-0.00136                  -0.00196                 0                        0.07916026140408473
-0.00131                  -0.00196                 0                        0.0772643223981226
-0.00126                  -0.00196                 0                        0.07524494632717225
-0.0012100000000000001    -0.00196                 0                        0.07305889271664084
-0.00116                  -0.00196                 0                        0.07068138407024219
-0.0011099999999999999    -0.00196                 0                        0.06815536288254606
-0.0010600000000000002    -0.00196                 0                        0.06550384683787452
-0.00101                  -0.00196                 0                        0.0627493758523794
-9.599999999999999E-4     -0.00196                 0                        0.060004836595137945
-9.1E-4                   -0.00196                 0                        0.05735856987325538
-8.600000000000001E-4     -0.00196                 0                        0.0547629617064304
-8.1E-4                   -0.00196                 0                        0.053052562712278734
-7.6E-4                   -0.00196                 0                        0.05413639013072374
-7.099999999999999E-4     -0.00196                 0                        0.0548958057629743
-6.6E-4                   -0.00196                 0                        0.05536818938708734
-6.100000000000001E-4     -0.00196                 0                        0.05546932055670258
-5.6E-4                   -0.00196                 0                        0.05502948150882603
-5.1E-4                   -0.00196                 0                        0.05397921126304609
-4.599999999999999E-4     -0.00196                 0                        0.05187496072545156
-4.1E-4                   -0.00196                 0                        0.04754304760263974
-3.600000000000001E-4     -0.00196                 0                        0.047521866909763705
-3.0999999999999995E-4    -0.00196                 0                        0.04751522106076845
-2.6000000000000003E-4    -0.00196                 0                        0.04628931692558292
-2.099999999999999E-4     -0.00196                 0                        0.04484793295737768
-1.5999999999999999E-4    -0.00196                 0                        0.04329596097723258
-1.1000000000000007E-4    -0.00196                 0                        0.04172850871377797
-5.999999999999994E-5     -0.00196                 0                        0.04016729249829372
-1.0000000000000026E-5    -0.00196                 0                        0.03861826905888589
4.0000000000000105E-5     -0.00196                 0                        0.03710120465720942
9.000000000000024E-5      -0.00196                 0                        0.03561808181256679
1.3999999999999993E-4     -0.00196                 0                        0.03416106332372994
1.9000000000000006E-4     -0.00196                 0                        0.03271232749971145
2.400000000000002E-4      -0.00196                 0                        0.031211049719921644
2.899999999999999E-4      -0.00196                 0                        0.02954987520632065
3.4E-4                    -0.00196                 0                        0.02749210111926457
3.9000000000000016E-4     -0.00196                 0                        0.024878336978682712
4.3999999999999985E-4     -0.00196                 0                        0.025011219790797148
4.9E-4                    -0.00196                 0                        0.02417630677031605
5.400000000000001E-4      -0.00196                 0                        0.022817983029792276
5.900000000000002E-4      -0.00196                 0                        0.02122157172280545
6.399999999999999E-4      -0.00196                 0                        0.019556953342907708
6.900000000000001E-4      -0.00196                 0                        0.017863744564025404
7.400000000000002E-4      -0.00196                 0                        0.01614399496198941
7.899999999999999E-4      -0.00196                 0                        0.014455172262181638
8.4E-4                    -0.00196                 0                        0.013288319575667994
8.900000000000002E-4      -0.00196                 0                        0.012931278137974046
9.399999999999999E-4      -0.00196                 0                        0.012591974071007487
9.9E-4                    -0.00196                 0                        0.012261119752540477
0.0010400000000000001     -0.00196                 0                        0.011940264402309055
0.0010900000000000003     -0.00196                 0                        0.011623524196496527
0.00114                   -0.00196                 0                        0.011310025109976352
0.00119                   -0.00196                 0                        0.010978122620386136
0.0012400000000000002     -0.00196                 0                        0.01064006857155717
0.00129                   -0.00196                 0                        0.010302257601685981
0.00134                   -0.00196                 0                        0.009962745192970773
0.0013900000000000002     -0.00196                 0                        0.009628849136151373
0.0014400000000000003     -0.00196                 0                        0.009302254070319179
0.00149                   -0.00196                 0                        0.00898281649675626
0.0015400000000000001     -0.00196                 0                        0.008672947602161973
0.0015900000000000003     -0.00196                 0                        0.00837424971274419
0.00164                   -0.00196                 0                        0.008085451437182426
0.00169                   -0.00196                 0                        0.007805476273259759
0.0017400000000000002     -0.00196                 0                        0.007533147659653122
0.00179                   -0.00196                 0                        0.007265820653113381
0.00184                   -0.00196                 0                        0.007007574540956132
0.0018900000000000002     -0.00196                 0                        0.006758466289458823
0.0019400000000000003     -0.00196                 0                        0.00651616548191817
0.00199                   -0.00196                 0                        0.006279500105972926
-0.00201                  -0.00191                 0                        0.08937908167287519
-0.00196                  -0.00191                 0                        0.09067753164276096
-0.00191                  -0.00191                 0                        0.09174277020308047
-0.00186                  -0.00191                 0                        0.09249923817888066
-0.00181                  -0.00191                 0                        0.09293728064348601
-0.00176                  -0.00191                 0                        0.09301418472983164
-0.0017100000000000001    -0.00191                 0                        0.09271274888234346
-0.00166                  -0.00191                 0                        0.09210163175352659
-0.00161                  -0.00191                 0                        0.09140699285345459
-0.00156                  -0.00191                 0                        0.09023666259199724
-0.00151                  -0.00191                 0                        0.08886376843498277
-0.00146                  -0.00191                 0                        0.08725153550119563
-0.00141                  -0.00191                 0                        0.08539511177758702
-0.00136                  -0.00191                 0                        0.08342347865299918
-0.00131                  -0.00191                 0                        0.08130879760068058
-0.00126                  -0.00191                 0                        0.07907668891771007
-0.0012100000000000001    -0.00191                 0                        0.07668904636344943
-0.00116                  -0.00191                 0                        0.07402778448177724
-0.0011099999999999999    -0.00191                 0                        0.07103316396119787
-0.0010600000000000002    -0.00191                 0                        0.06796095894373747
-0.00101                  -0.00191                 0                        0.06482971276495392
-9.599999999999999E-4     -0.00191                 0                        0.061754915774854785
-9.1E-4                   -0.00191                 0                        0.06083356963980295
-8.600000000000001E-4     -0.00191                 0                        0.06245593615305455
-8.1E-4                   -0.00191                 0                        0.06373461388489868
-7.6E-4                   -0.00191                 0                        0.06464529686714504
-7.099999999999999E-4     -0.00191                 0                        0.06516281268018474
-6.6E-4                   -0.00191                 0                        0.06526568828607389
-6.100000000000001E-4     -0.00191                 0                        0.06490140793870453
-5.6E-4                   -0.00191                 0                        0.062399403426275674
-5.1E-4                   -0.00191                 0                        0.058944995239248274
-4.599999999999999E-4     -0.00191                 0                        0.055278530946931914
-4.1E-4                   -0.00191                 0                        0.05193163291924062
-3.600000000000001E-4     -0.00191                 0                        0.04982332969885966
-3.0999999999999995E-4    -0.00191                 0                        0.0484291466676406
-2.6000000000000003E-4    -0.00191                 0                        0.04699059943667172
-2.099999999999999E-4     -0.00191                 0                        0.0454674610118538
-1.5999999999999999E-4    -0.00191                 0                        0.04384946823193894
-1.1000000000000007E-4    -0.00191                 0                        0.04220391336658437
-5.999999999999994E-5     -0.00191                 0                        0.04060426023527285
-1.0000000000000026E-5    -0.00191                 0                        0.03901846915218005
4.0000000000000105E-5     -0.00191                 0                        0.03744608756791568
9.000000000000024E-5      -0.00191                 0                        0.03590853433551973
1.3999999999999993E-4     -0.00191                 0                        0.03440616755342659
1.9000000000000006E-4     -0.00191                 0                        0.032909025923004855
2.400000000000002E-4      -0.00191                 0                        0.0313723366054213
2.899999999999999E-4      -0.00191                 0                        0.029738370280799675
3.4E-4                    -0.00191                 0                        0.028151359501430596
3.9000000000000016E-4     -0.00191                 0                        0.026652678378088608
4.3999999999999985E-4     -0.00191                 0                        0.02615362066707925
4.9E-4                    -0.00191                 0                        0.02571555889148391
5.400000000000001E-4      -0.00191                 0                        0.025247727133090335
5.900000000000002E-4      -0.00191                 0                        0.024709101620446167
6.399999999999999E-4      -0.00191                 0                        0.022994569385349276
6.900000000000001E-4      -0.00191                 0                        0.021159000871613178
7.400000000000002E-4      -0.00191                 0                        0.019301059645945053
7.899999999999999E-4      -0.00191                 0                        0.017460158433562953
8.4E-4                    -0.00191                 0                        0.01566629711040041
8.900000000000002E-4      -0.00191                 0                        0.013925070244419616
9.399999999999999E-4      -0.00191                 0                        0.012481998260024994
9.9E-4                    -0.00191                 0                        0.012192447337980996
0.0010400000000000001     -0.00191                 0                        0.01191503079644716
0.0010900000000000003     -0.00191                 0                        0.011644808930617714
0.00114                   -0.00191                 0                        0.011368800220163292
0.00119                   -0.00191                 0                        0.01106279075430341
0.0012400000000000002     -0.00191                 0                        0.01073279799625199
0.00129                   -0.00191                 0                        0.010395266930228826
0.00134                   -0.00191                 0                        0.010045828591060204
0.0013900000000000002     -0.00191                 0                        0.009712862835817607
0.0014400000000000003     -0.00191                 0                        0.00938812988442968
0.00149                   -0.00191                 0                        0.00907013529284174
0.0015400000000000001     -0.00191                 0                        0.008761730034343896
0.0015900000000000003     -0.00191                 0                        0.008464137578347356
0.00164                   -0.00191                 0                        0.008175959696381458
0.00169                   -0.00191                 0                        0.007890761237726479
0.0017400000000000002     -0.00191                 0                        0.007616811726419314
0.00179                   -0.00191                 0                        0.007349358357410893
0.00184                   -0.00191                 0                        0.007090367552487309
0.0018900000000000002     -0.00191                 0                        0.006839839311648561
0.0019400000000000003     -0.00191                 0                        0.006596347871399042
0.00199                   -0.00191                 0                        0.006358719323101406
-0.00201                  -0.00186                 0                        0.09507045351313613
-0.00196                  -0.00186                 0                        0.09657059611957494
-0.00191                  -0.00186                 0                        0.09777123959496006
-0.00186                  -0.00186                 0                        0.09854930486807065
-0.00181                  -0.00186                 0                        0.09896658247452282
-0.00176                  -0.00186                 0                        0.09902272170271528
-0.0017100000000000001    -0.00186                 0                        0.09871772255264802
-0.00166                  -0.00186                 0                        0.09805158502432113
-0.00161                  -0.00186                 0                        0.09710228851933383
-0.00156                  -0.00186                 0                        0.09577185086170593
-0.00151                  -0.00186                 0                        0.09415703708231457
-0.00146                  -0.00186                 0                        0.09224139658500119
-0.00141                  -0.00186                 0                        0.09008488605152869
-0.00136                  -0.00186                 0                        0.08782145757187758
-0.00131                  -0.00186                 0                        0.08549185035103721
-0.00126                  -0.00186                 0                        0.08310283302612625
-0.0012100000000000001    -0.00186                 0                        0.0805240131300016
-0.00116                  -0.00186                 0                        0.07764028337597091
-0.0011099999999999999    -0.00186                 0                        0.07404967848646858
-0.0010600000000000002    -0.00186                 0                        0.07041356494723
-0.00101                  -0.00186                 0                        0.06890091990424307
-9.599999999999999E-4     -0.00186                 0                        0.07107307563845128
-9.1E-4                   -0.00186                 0                        0.07278965816828381
-8.600000000000001E-4     -0.00186                 0                        0.07428294269308386
-8.1E-4                   -0.00186                 0                        0.07538095110956144
-7.6E-4                   -0.00186                 0                        0.07608221541354421
-7.099999999999999E-4     -0.00186                 0                        0.07437601722548987
-6.6E-4                   -0.00186                 0                        0.07070059781955573
-6.100000000000001E-4     -0.00186                 0                        0.06718195618545728
-5.6E-4                   -0.00186                 0                        0.06376621053428677
-5.1E-4                   -0.00186                 0                        0.06043340364770758
-4.599999999999999E-4     -0.00186                 0                        0.05723077534139672
-4.1E-4                   -0.00186                 0                        0.05438282370056283
-3.600000000000001E-4     -0.00186                 0                        0.05201964321844632
-3.0999999999999995E-4    -0.00186                 0                        0.050004437324356305
-2.6000000000000003E-4    -0.00186                 0                        0.04822059437086747
-2.099999999999999E-4     -0.00186                 0                        0.04647741861307747
-1.5999999999999999E-4    -0.00186                 0                        0.04475148773736774
-1.1000000000000007E-4    -0.00186                 0                        0.043000027774960606
-5.999999999999994E-5     -0.00186                 0                        0.04131717797384038
-1.0000000000000026E-5    -0.00186                 0                        0.03967870900965184
4.0000000000000105E-5     -0.00186                 0                        0.03805368710304859
9.000000000000024E-5      -0.00186                 0                        0.03646351981728093
1.3999999999999993E-4     -0.00186                 0                        0.03491053375564897
1.9000000000000006E-4     -0.00186                 0                        0.03337727668425607
2.400000000000002E-4      -0.00186                 0                        0.0318437595551473
2.899999999999999E-4      -0.00186                 0                        0.0303217876265508
3.4E-4                    -0.00186                 0                        0.028938469187899392
3.9000000000000016E-4     -0.00186                 0                        0.027677209243092225
4.3999999999999985E-4     -0.00186                 0                        0.02669923329811873
4.9E-4                    -0.00186                 0                        0.025995635190223125
5.400000000000001E-4      -0.00186                 0                        0.02533026210547761
5.900000000000002E-4      -0.00186                 0                        0.024641967994757746
6.399999999999999E-4      -0.00186                 0                        0.02397726625098186
6.900000000000001E-4      -0.00186                 0                        0.02333698465817678
7.400000000000002E-4      -0.00186                 0                        0.022586454861998853
7.899999999999999E-4      -0.00186                 0                        0.02058051140002761
8.4E-4                    -0.00186                 0                        0.018601774740361454
8.900000000000002E-4      -0.00186                 0                        0.016703449620572946
9.399999999999999E-4      -0.00186                 0                        0.01488470656452334
9.9E-4                    -0.00186                 0                        0.013125459271386197
0.0010400000000000001     -0.00186                 0                        0.011835291604648608
0.0010900000000000003     -0.00186                 0                        0.011625136999604161
0.00114                   -0.00186                 0                        0.011432735543869033