% Model:              cuff_3d_14electrodes_4mm_nerve.mph
% Version:            COMSOL 5.3.0.260
% Date:               Apr 27 2020, 14:17
% Dimension:          3
% Nodes:              6561
% Expressions:        1
% Description:        Electric potential
% Length unit:        m
% X                       Y                        Z                        V (V)
-0.00201                  -0.00201                 0                        0.006112460862955558
-0.00196                  -0.00201                 0                        0.006344898053933755
-0.00191                  -0.00201                 0                        0.006583315051224319
-0.00186                  -0.00201                 0                        0.006827986892294926
-0.00181                  -0.00201                 0                        0.007081965240729201
-0.00176                  -0.00201                 0                        0.007344388706225462
-0.0017100000000000001    -0.00201                 0                        0.007613826643859403
-0.00166                  -0.00201                 0                        0.007890528775664696
-0.00161                  -0.00201                 0                        0.008174692609813548
-0.00156                  -0.00201                 0                        0.008468158964965533
-0.00151                  -0.00201                 0                        0.008771801526995995
-0.00146                  -0.00201                 0                        0.009084685731745885
-0.00141                  -0.00201                 0                        0.00940763381280444
-0.00136                  -0.00201                 0                        0.009738842491326732
-0.00131                  -0.00201                 0                        0.010078921358418293
-0.00126                  -0.00201                 0                        0.010423849967228373
-0.0012100000000000001    -0.00201                 0                        0.010765288260878303
-0.00116                  -0.00201                 0                        0.011109660735415331
-0.0011099999999999999    -0.00201                 0                        0.011452885197627091
-0.0010600000000000002    -0.00201                 0                        0.0117988054173124
-0.00101                  -0.00201                 0                        0.012147750734644695
-9.599999999999999E-4     -0.00201                 0                        0.012501672760350555
-9.1E-4                   -0.00201                 0                        0.012870479450411594
-8.600000000000001E-4     -0.00201                 0                        0.013255057604121642
-8.1E-4                   -0.00201                 0                        0.013663135346804684
-7.6E-4                   -0.00201                 0                        0.014088637238609298
-7.099999999999999E-4     -0.00201                 0                        0.014542075568438322
-6.6E-4                   -0.00201                 0                        0.015678784403544106
-6.100000000000001E-4     -0.00201                 0                        0.017303850682468196
-5.6E-4                   -0.00201                 0                        0.01884917119523754
-5.1E-4                   -0.00201                 0                        0.020311368059246885
-4.599999999999999E-4     -0.00201                 0                        0.02163774047443434
-4.1E-4                   -0.00201                 0                        0.022473570056677272
-3.600000000000001E-4     -0.00201                 0                        0.023864945203522562
-3.0999999999999995E-4    -0.00201                 0                        0.026247054498216616
-2.6000000000000003E-4    -0.00201                 0                        0.02835397072909219
-2.099999999999999E-4     -0.00201                 0                        0.030228956427824718
-1.5999999999999999E-4    -0.00201                 0                        0.0320045440802323
-1.1000000000000007E-4    -0.00201                 0                        0.033675481638318856
-5.999999999999994E-5     -0.00201                 0                        0.03529450652918782
-1.0000000000000026E-5    -0.00201                 0                        0.03679487596609546
4.0000000000000105E-5     -0.00201                 0                        0.038201017788778685
9.000000000000024E-5      -0.00201                 0                        0.03946650916478586
1.3999999999999993E-4     -0.00201                 0                        0.04067922256558132
1.9000000000000006E-4     -0.00201                 0                        0.041719434196469576
2.400000000000002E-4      -0.00201                 0                        0.04253214221283973
2.899999999999999E-4      -0.00201                 0                        0.04307703790577713
3.4E-4                    -0.00201                 0                        0.04321400167941519
3.9000000000000016E-4     -0.00201                 0                        0.043277489040709105
4.3999999999999985E-4     -0.00201                 0                        0.04402953471022828
4.9E-4                    -0.00201                 0                        0.045808345623817796
5.400000000000001E-4      -0.00201                 0                        0.046583998052690714
5.900000000000002E-4      -0.00201                 0                        0.04672124934021537
6.399999999999999E-4      -0.00201                 0                        0.046500861649497995
6.900000000000001E-4      -0.00201                 0                        0.045959903547146776
7.400000000000002E-4      -0.00201                 0                        0.04807985631331044
7.899999999999999E-4      -0.00201                 0                        0.050267530975073166
8.4E-4                    -0.00201                 0                        0.052545360749156673
8.900000000000002E-4      -0.00201                 0                        0.05491425147134731
9.399999999999999E-4      -0.00201                 0                        0.05732286303174365
9.9E-4                    -0.00201                 0                        0.05971057817946074
0.0010400000000000001     -0.00201                 0                        0.06208280716911677
0.0010900000000000003     -0.00201                 0                        0.06443940934932868
0.00114                   -0.00201                 0                        0.06673691954057283
0.00119                   -0.00201                 0                        0.06890458908686707
0.0012400000000000002     -0.00201                 0                        0.07092272588057084
0.00129                   -0.00201                 0                        0.07280944204282881
0.00134                   -0.00201                 0                        0.07455928762715008
0.0013900000000000002     -0.00201                 0                        0.07615343160226898
0.0014400000000000003     -0.00201                 0                        0.07763258515918647
0.00149                   -0.00201                 0                        0.07893889373706377
0.0015400000000000001     -0.00201                 0                        0.08007503965091614
0.0015900000000000003     -0.00201                 0                        0.08098435352501222
0.00164                   -0.00201                 0                        0.08166544544094415
0.00169                   -0.00201                 0                        0.0821801741179391
0.0017400000000000002     -0.00201                 0                        0.08240917883020987
0.00179                   -0.00201                 0                        0.08232450607870967
0.00184                   -0.00201                 0                        0.08204223201802095
0.0018900000000000002     -0.00201                 0                        0.08154183996065392
0.0019400000000000003     -0.00201                 0                        0.08088077958561105
0.00199                   -0.00201                 0                        0.07999340655039808
-0.00201                  -0.00196                 0                        0.0061961387889263985
-0.00196                  -0.00196                 0                        0.006430454513485802
-0.00191                  -0.00196                 0                        0.0066707431392070545
-0.00186                  -0.00196                 0                        0.00691916975040838
-0.00181                  -0.00196                 0                        0.00717469510466015
-0.00176                  -0.00196                 0                        0.007437319301601769
-0.0017100000000000001    -0.00196                 0                        0.007707042341233237
-0.00166                  -0.00196                 0                        0.007984812122449284
-0.00161                  -0.00196                 0                        0.00827022169504462
-0.00156                  -0.00196                 0                        0.008564359209673595
-0.00151                  -0.00196                 0                        0.008869899402394882
-0.00146                  -0.00196                 0                        0.009184400677250067
-0.00141                  -0.00196                 0                        0.009509320723319599
-0.00136                  -0.00196                 0                        0.009841586858459265
-0.00131                  -0.00196                 0                        0.010183608575454141
-0.00126                  -0.00196                 0                        0.010529496250013369
-0.0012100000000000001    -0.00196                 0                        0.010869284224070136
-0.00116                  -0.00196                 0                        0.011199222402037995
-0.0011099999999999999    -0.00196                 0                        0.011521546076166263
-0.0010600000000000002    -0.00196                 0                        0.0118364688118797
-0.00101                  -0.00196                 0                        0.012148128592454776
-9.599999999999999E-4     -0.00196                 0                        0.012466363394316594
-9.1E-4                   -0.00196                 0                        0.012808867998511327
-8.600000000000001E-4     -0.00196                 0                        0.013170209697225972
-8.1E-4                   -0.00196                 0                        0.013815105653234985
-7.6E-4                   -0.00196                 0                        0.015476240161592745
-7.099999999999999E-4     -0.00196                 0                        0.017183995017575646
-6.6E-4                   -0.00196                 0                        0.018912700450797487
-6.100000000000001E-4     -0.00196                 0                        0.02064160411227815
-5.6E-4                   -0.00196                 0                        0.022275440969696036
-5.1E-4                   -0.00196                 0                        0.023735611991738632
-4.599999999999999E-4     -0.00196                 0                        0.02481170610508375
-4.1E-4                   -0.00196                 0                        0.024818914266610346
-3.600000000000001E-4     -0.00196                 0                        0.026441024807333187
-3.0999999999999995E-4    -0.00196                 0                        0.028958975020815122
-2.6000000000000003E-4    -0.00196                 0                        0.030637783143161477
-2.099999999999999E-4     -0.00196                 0                        0.03217350790970659
-1.5999999999999999E-4    -0.00196                 0                        0.033645137753744496
-1.1000000000000007E-4    -0.00196                 0                        0.0351035958055175
-5.999999999999994E-5     -0.00196                 0                        0.03658761351987646
-1.0000000000000026E-5    -0.00196                 0                        0.03807943288648613
4.0000000000000105E-5     -0.00196                 0                        0.03960312688041664
9.000000000000024E-5      -0.00196                 0                        0.04114874263721227
1.3999999999999993E-4     -0.00196                 0                        0.042731107484347726
1.9000000000000006E-4     -0.00196                 0                        0.044315330427648056
2.400000000000002E-4      -0.00196                 0                        0.04581944789561629
2.899999999999999E-4      -0.00196                 0                        0.04705906219291375
3.4E-4                    -0.00196                 0                        0.047747229713465705
3.9000000000000016E-4     -0.00196                 0                        0.04704154902002823
4.3999999999999985E-4     -0.00196                 0                        0.05073997584743285
4.9E-4                    -0.00196                 0                        0.053373766486066274
5.400000000000001E-4      -0.00196                 0                        0.05469512922990533
5.900000000000002E-4      -0.00196                 0                        0.05533870087098729
6.399999999999999E-4      -0.00196                 0                        0.05549274360006209
6.900000000000001E-4      -0.00196                 0                        0.055266650124817865
7.400000000000002E-4      -0.00196                 0                        0.05463534239921451
7.899999999999999E-4      -0.00196                 0                        0.05364800071230642
8.4E-4                    -0.00196                 0                        0.053811124920242884
8.900000000000002E-4      -0.00196                 0                        0.05641269351393868
9.399999999999999E-4      -0.00196                 0                        0.059092199051243334
9.9E-4                    -0.00196                 0                        0.06179049385925884
0.0010400000000000001     -0.00196                 0                        0.06451977628824272
0.0010900000000000003     -0.00196                 0                        0.06720187023678496
0.00114                   -0.00196                 0                        0.06982980644945286
0.00119                   -0.00196                 0                        0.07224920054886373
0.0012400000000000002     -0.00196                 0                        0.07450326183214762
0.00129                   -0.00196                 0                        0.07661243143221229
0.00134                   -0.00196                 0                        0.0785681168656351
0.0013900000000000002     -0.00196                 0                        0.08040582877225393
0.0014400000000000003     -0.00196                 0                        0.08206441362010626
0.00149                   -0.00196                 0                        0.08353506279355784
0.0015400000000000001     -0.00196                 0                        0.08480320349779234
0.0015900000000000003     -0.00196                 0                        0.0858447187631053
0.00164                   -0.00196                 0                        0.08665200171759292
0.00169                   -0.00196                 0                        0.08723020751516788
0.0017400000000000002     -0.00196                 0                        0.08747183466503913
0.00179                   -0.00196                 0                        0.08744474213903883
0.00184                   -0.00196                 0                        0.08718743605740711
0.0018900000000000002     -0.00196                 0                        0.08670278981292226
0.0019400000000000003     -0.00196                 0                        0.08598585306660178
0.00199                   -0.00196                 0                        0.08493786719476587
-0.00201                  -0.00191                 0                        0.00627476527347709
-0.00196                  -0.00191                 0                        0.006511264015552704
-0.00191                  -0.00191                 0                        0.006753802306683687
-0.00186                  -0.00191                 0                        0.007002559779145545
-0.00181                  -0.00191                 0                        0.007257964301199554
-0.00176                  -0.00191                 0                        0.007520793528933102
-0.0017100000000000001    -0.00191                 0                        0.007790778016801055
-0.00166                  -0.00191                 0                        0.00806821020820201
-0.00161                  -0.00191                 0                        0.008354824303041908
-0.00156                  -0.00191                 0                        0.008651149412263897
-0.00151                  -0.00191                 0                        0.008954931859355298
-0.00146                  -0.00191                 0                        0.00927032930804481
-0.00141                  -0.00191                 0                        0.009593270358224708
-0.00136                  -0.00191                 0                        0.009926536722500292
-0.00131                  -0.00191                 0                        0.010268902777569776
-0.00126                  -0.00191                 0                        0.010615045931429591
-0.0012100000000000001    -0.00191                 0                        0.010957688923398996
-0.00116                  -0.00191                 0                        0.011272581542371056
-0.0011099999999999999    -0.00191                 0                        0.011549699052730867
-0.0010600000000000002    -0.00191                 0                        0.011822774284773883
-0.00101                  -0.00191                 0                        0.012096932000421105
-9.599999999999999E-4     -0.00191                 0                        0.012377351143987674
-9.1E-4                   -0.00191                 0                        0.01325685672485752
-8.600000000000001E-4     -0.00191                 0                        0.014962765019114888
-8.1E-4                   -0.00191                 0                        0.016734027321977242
-7.6E-4                   -0.00191                 0                        0.018567172831560674
-7.099999999999999E-4     -0.00191                 0                        0.020439683321177342
-6.6E-4                   -0.00191                 0                        0.0223048946932676
-6.100000000000001E-4     -0.00191                 0                        0.024106790380291957
-5.6E-4                   -0.00191                 0                        0.025068786779890242
-5.1E-4                   -0.00191                 0                        0.025597031769398593
-4.599999999999999E-4     -0.00191                 0                        0.02599292930270371
-4.1E-4                   -0.00191                 0                        0.02645353627584117
-3.600000000000001E-4     -0.00191                 0                        0.027563072488097203
-3.0999999999999995E-4    -0.00191                 0                        0.029181617879672897
-2.6000000000000003E-4    -0.00191                 0                        0.03079523087463228
-2.099999999999999E-4     -0.00191                 0                        0.03236383516125202
-1.5999999999999999E-4    -0.00191                 0                        0.033864660151587914
-1.1000000000000007E-4    -0.00191                 0                        0.03536079404442924
-5.999999999999994E-5     -0.00191                 0                        0.03690415584185604
-1.0000000000000026E-5    -0.00191                 0                        0.03846113140241512
4.0000000000000105E-5     -0.00191                 0                        0.040027921997909284
9.000000000000024E-5      -0.00191                 0                        0.04163292897351239
1.3999999999999993E-4     -0.00191                 0                        0.04327175996464949
1.9000000000000006E-4     -0.00191                 0                        0.04490018959965297
2.400000000000002E-4      -0.00191                 0                        0.04646839376176095
2.899999999999999E-4      -0.00191                 0                        0.04788479734050137
3.4E-4                    -0.00191                 0                        0.04932565128925253
3.9000000000000016E-4     -0.00191                 0                        0.05080199426769072
4.3999999999999985E-4     -0.00191                 0                        0.05405222155738502
4.9E-4                    -0.00191                 0                        0.057563545025022554
5.400000000000001E-4      -0.00191                 0                        0.061120346020093044
5.900000000000002E-4      -0.00191                 0                        0.06460743844113138
6.399999999999999E-4      -0.00191                 0                        0.06529965081213415
6.900000000000001E-4      -0.00191                 0                        0.06541814098535859
7.400000000000002E-4      -0.00191                 0                        0.06508453459040238
7.899999999999999E-4      -0.00191                 0                        0.06433857399030679
8.4E-4                    -0.00191                 0                        0.06321326223588404
8.900000000000002E-4      -0.00191                 0                        0.061736445419486266
9.399999999999999E-4      -0.00191                 0                        0.060694176169439985
9.9E-4                    -0.00191                 0                        0.06373601248254158
0.0010400000000000001     -0.00191                 0                        0.06685178448607668
0.0010900000000000003     -0.00191                 0                        0.0699790386428625
0.00114                   -0.00191                 0                        0.07301599837356902
0.00119                   -0.00191                 0                        0.07576966691173799
0.0012400000000000002     -0.00191                 0                        0.07827693981087475
0.00129                   -0.00191                 0                        0.08061275453163808
0.00134                   -0.00191                 0                        0.08274217554699732
0.0013900000000000002     -0.00191                 0                        0.08481940110305038
0.0014400000000000003     -0.00191                 0                        0.08673789864073976
0.00149                   -0.00191                 0                        0.08844374739281763
0.0015400000000000001     -0.00191                 0                        0.08989805816149098
0.0015900000000000003     -0.00191                 0                        0.0911486948430037
0.00164                   -0.00191                 0                        0.09215579323366732
0.00169                   -0.00191                 0                        0.09283704163982799
0.0017400000000000002     -0.00191                 0                        0.09312956201971126
0.00179                   -0.00191                 0                        0.09313265325826865
0.00184                   -0.00191                 0                        0.09287064336853469
0.0018900000000000002     -0.00191                 0                        0.09234353235050939
0.0019400000000000003     -0.00191                 0                        0.09150042656239392
0.00199                   -0.00191                 0                        0.09030421563149098
-0.00201                  -0.00186                 0                        0.006348512043783035
-0.00196                  -0.00186                 0                        0.006585782228747378
-0.00191                  -0.00186                 0                        0.00682996842450829
-0.00186                  -0.00186                 0                        0.00707847865722678
-0.00181                  -0.00186                 0                        0.007333223530459147
-0.00176                  -0.00186                 0                        0.00759539310937105
-0.0017100000000000001    -0.00186                 0                        0.007864987393962493
-0.00166                  -0.00186                 0                        0.008142006384233482
-0.00161                  -0.00186                 0                        0.008429082368198405
-0.00156                  -0.00186                 0                        0.008721171048760894
-0.00151                  -0.00186                 0                        0.009022450611307848
-0.00146                  -0.00186                 0                        0.009332032474952005
-0.00141                  -0.00186                 0                        0.009651639284588395
-0.00136                  -0.00186                 0                        0.009983223229594376
-0.00131                  -0.00186                 0                        0.010335390766734107
-0.00126                  -0.00186                 0                        0.01069883020774837
-0.0012100000000000001    -0.00186                 0                        0.011045320938436586
-0.00116                  -0.00186                 0                        0.01135210112612863
-0.0011099999999999999    -0.00186                 0                        0.011563899534419051
-0.0010600000000000002    -0.00186                 0                        0.011775601893393281
-0.00101                  -0.00186                 0                        0.01247673392645703
-9.599999999999999E-4     -0.00186                 0                        0.014153150367711816
-9.1E-4                   -0.00186                 0                        0.015924481757381148
-8.600000000000001E-4     -0.00186                 0                        0.017827615939777698
-8.1E-4                   -0.00186                 0                        0.019791023732642608
-7.6E-4                   -0.00186                 0                        0.021796936501493017
-7.099999999999999E-4     -0.00186                 0                        0.023120598978098268
-6.6E-4                   -0.00186                 0                        0.02375759473553027
-6.100000000000001E-4     -0.00186                 0                        0.024420993462165273
-5.6E-4                   -0.00186                 0                        0.025090072671200423
-5.1E-4                   -0.00186                 0                        0.0257734060892348
-4.599999999999999E-4     -0.00186                 0                        0.026483500573602166
-4.1E-4                   -0.00186                 0                        0.0273631547228624
-3.600000000000001E-4     -0.00186                 0                        0.028488658906289654
-3.0999999999999995E-4    -0.00186                 0                        0.029824100509243605
-2.6000000000000003E-4    -0.00186                 0                        0.03130764613026846
-2.099999999999999E-4     -0.00186                 0                        0.03283251894786345
-1.5999999999999999E-4    -0.00186                 0                        0.03436737357950226
-1.1000000000000007E-4    -0.00186                 0                        0.035888347821440014
-5.999999999999994E-5     -0.00186                 0                        0.03747404043916503
-1.0000000000000026E-5    -0.00186                 0                        0.039095690425596824
4.0000000000000105E-5     -0.00186                 0                        0.04073742470431382
9.000000000000024E-5      -0.00186                 0                        0.042412357549843835
1.3999999999999993E-4     -0.00186                 0                        0.04412455471337
1.9000000000000006E-4     -0.00186                 0                        0.04585535789332561
2.400000000000002E-4      -0.00186                 0                        0.04757686369765445
2.899999999999999E-4      -0.00186                 0                        0.04931138342998698
3.4E-4                    -0.00186                 0                        0.05124803407573075
3.9000000000000016E-4     -0.00186                 0                        0.05338852891545518
4.3999999999999985E-4     -0.00186                 0                        0.05601080861090885
4.9E-4                    -0.00186                 0                        0.05921844270946032
5.400000000000001E-4      -0.00186                 0                        0.06255301276694775
5.900000000000002E-4      -0.00186                 0                        0.06591634691759003
6.399999999999999E-4      -0.00186                 0                        0.06940294487818435
6.900000000000001E-4      -0.00186                 0                        0.0730312355030856
7.400000000000002E-4      -0.00186                 0                        0.0764032628469174
7.899999999999999E-4      -0.00186                 0                        0.07595339113118398
8.4E-4                    -0.00186                 0                        0.0750710167729253
8.900000000000002E-4      -0.00186                 0                        0.07380640795713392
9.399999999999999E-4      -0.00186                 0                        0.07216816177335218
9.9E-4                    -0.00186                 0                        0.07001132350686967
0.0010400000000000001     -0.00186                 0                        0.06904443524880383
0.0010900000000000003     -0.00186                 0                        0.07270319617274983
0.00114                   -0.00186                 0                        0.07647882803772163