% Model:              cuff_3d_14electrodes.mph
% Version:            COMSOL 5.3.0.260
% Date:               Oct 1 2019, 23:01
% Dimension:          3
% Nodes:              23104
% Expressions:        1
% Description:        Electric potential
% Length unit:        m
% X                       Y                        Z                        V (V)
-0.00151                  -0.00151                 0                        0.014748963591661316
-0.00149                  -0.00151                 0                        0.014861669719104425
-0.00147                  -0.00151                 0                        0.01497532768401024
-0.0014500000000000001    -0.00151                 0                        0.015086893262903972
-0.00143                  -0.00151                 0                        0.015193838673885593
-0.00141                  -0.00151                 0                        0.01529921998563039
-0.00139                  -0.00151                 0                        0.015403037198138415
-0.0013700000000000001    -0.00151                 0                        0.015505290311409622
-0.00135                  -0.00151                 0                        0.015605959150156393
-0.00133                  -0.00151                 0                        0.015704806177903444
-0.00131                  -0.00151                 0                        0.015801909177924223
-0.0012900000000000001    -0.00151                 0                        0.0158974096897601
-0.00127                  -0.00151                 0                        0.015992031734120213
-0.00125                  -0.00151                 0                        0.016085569592817945
-0.00123                  -0.00151                 0                        0.016177900236435994
-0.0012100000000000001    -0.00151                 0                        0.016269380541898377
-0.00119                  -0.00151                 0                        0.01635925021888823
-0.00117                  -0.00151                 0                        0.01644750926740556
-0.00115                  -0.00151                 0                        0.01653395132336064
-0.00113                  -0.00151                 0                        0.016618716955111204
-0.00111                  -0.00151                 0                        0.016702194242057218
-0.00109                  -0.00151                 0                        0.016786003842316554
-0.00107                  -0.00151                 0                        0.016867881754924794
-0.0010500000000000002    -0.00151                 0                        0.016948085496072726
-0.00103                  -0.00151                 0                        0.017027312288287123
-0.00101                  -0.00151                 0                        0.017105560066478693
-9.9E-4                   -0.00151                 0                        0.017182826762338857
-9.7E-4                   -0.00151                 0                        0.017259110304333466
-9.5E-4                   -0.00151                 0                        0.017334408617696404
-9.3E-4                   -0.00151                 0                        0.017409060177783445
-9.1E-4                   -0.00151                 0                        0.017483327857368478
-8.900000000000001E-4     -0.00151                 0                        0.017557294786658885
-8.7E-4                   -0.00151                 0                        0.020261659411673294
-8.5E-4                   -0.00151                 0                        0.023957411032231007
-8.3E-4                   -0.00151                 0                        0.027654291784119177
-8.1E-4                   -0.00151                 0                        0.03134971518930673
-7.9E-4                   -0.00151                 0                        0.03503430678151315
-7.7E-4                   -0.00151                 0                        0.03872179907730973
-7.5E-4                   -0.00151                 0                        0.042417211051959454
-7.3E-4                   -0.00151                 0                        0.04610742384164814
-7.1E-4                   -0.00151                 0                        0.04977564447161986
-6.9E-4                   -0.00151                 0                        0.05344903488679862
-6.7E-4                   -0.00151                 0                        0.05711375893320486
-6.5E-4                   -0.00151                 0                        0.060760841045951884
-6.3E-4                   -0.00151                 0                        0.0643931331481413
-6.1E-4                   -0.00151                 0                        0.06800795441465904
-5.9E-4                   -0.00151                 0                        0.07161029896086946
-5.7E-4                   -0.00151                 0                        0.07520173757866573
-5.499999999999999E-4     -0.00151                 0                        0.07876979833676714
-5.299999999999999E-4     -0.00151                 0                        0.082314637261505
-5.1E-4                   -0.00151                 0                        0.0858503154006215
-4.9E-4                   -0.00151                 0                        0.08935442171707493
-4.6999999999999993E-4    -0.00151                 0                        0.09282559368492119
-4.499999999999999E-4     -0.00151                 0                        0.09626911804613612
-4.3000000000000004E-4    -0.00151                 0                        0.09968732733870031
-4.1E-4                   -0.00151                 0                        0.10307799107289962
-3.8999999999999994E-4    -0.00151                 0                        0.10642963791990775
-3.699999999999999E-4     -0.00151                 0                        0.10973875427107661
-3.5000000000000005E-4    -0.00151                 0                        0.1130031435302283
-3.3E-4                   -0.00151                 0                        0.1162206004344626
-3.0999999999999995E-4    -0.00151                 0                        0.11939629910095009
-2.899999999999999E-4     -0.00151                 0                        0.12250831277342782
-2.7000000000000006E-4    -0.00151                 0                        0.12555064665758556
-2.5E-4                   -0.00151                 0                        0.1285319784277067
-2.2999999999999995E-4    -0.00151                 0                        0.13145137765173398
-2.099999999999999E-4     -0.00151                 0                        0.1343035892945674
-1.8999999999999985E-4    -0.00151                 0                        0.13707561361918977
-1.7E-4                   -0.00151                 0                        0.13977114429943163
-1.4999999999999996E-4    -0.00151                 0                        0.14237850684004894
-1.299999999999999E-4     -0.00151                 0                        0.14490449848255949
-1.0999999999999985E-4    -0.00151                 0                        0.14734589816051816
-9.000000000000002E-5     -0.00151                 0                        0.14969268755411969
-6.999999999999997E-5     -0.00151                 0                        0.15193568779424116
-4.9999999999999914E-5    -0.00151                 0                        0.15406827077843163
-2.9999999999999862E-5    -0.00151                 0                        0.15609235470426186
-1.0000000000000026E-5    -0.00151                 0                        0.15800147931628267
1.0000000000000026E-5     -0.00151                 0                        0.1597775305828187
3.000000000000008E-5      -0.00151                 0                        0.16143277029011666
5.000000000000013E-5      -0.00151                 0                        0.1629618670074168
6.999999999999997E-5      -0.00151                 0                        0.16435479527069446
9.000000000000002E-5      -0.00151                 0                        0.16559787841879597
1.1000000000000007E-4     -0.00151                 0                        0.16669350755974083
1.3000000000000012E-4     -0.00151                 0                        0.16763359926047952
1.5000000000000018E-4     -0.00151                 0                        0.16840504254509914
1.7E-4                    -0.00151                 0                        0.16902955940863623
1.9000000000000006E-4     -0.00151                 0                        0.16947847173817004
2.1000000000000012E-4     -0.00151                 0                        0.1697193645654761
2.3000000000000017E-4     -0.00151                 0                        0.1698056328415949
2.5E-4                    -0.00151                 0                        0.16970845497223294
2.7000000000000006E-4     -0.00151                 0                        0.16942428945666432
2.900000000000001E-4      -0.00151                 0                        0.16892213229428854
3.1000000000000016E-4     -0.00151                 0                        0.16820390067310947
3.3E-4                    -0.00151                 0                        0.1672734257448253
3.5000000000000005E-4     -0.00151                 0                        0.16611661040257877
3.700000000000001E-4      -0.00151                 0                        0.16473543382712358
3.9000000000000016E-4     -0.00151                 0                        0.16313298087786451
4.100000000000002E-4      -0.00151                 0                        0.16130895986837682
4.3000000000000004E-4     -0.00151                 0                        0.1592174221887221
4.500000000000003E-4      -0.00151                 0                        0.15686219634101858
4.6999999999999993E-4     -0.00151                 0                        0.154261881004483
4.9E-4                    -0.00151                 0                        0.15143622894435804
5.1E-4                    -0.00151                 0                        0.14834017804605226
5.300000000000001E-4      -0.00151                 0                        0.1449562614770267
5.500000000000001E-4      -0.00151                 0                        0.1412809093615525
5.700000000000002E-4      -0.00151                 0                        0.13733152587058078
5.900000000000002E-4      -0.00151                 0                        0.13310018507116367
6.100000000000003E-4      -0.00151                 0                        0.12857297425797967
6.299999999999999E-4      -0.00151                 0                        0.12374170512881794
6.5E-4                    -0.00151                 0                        0.11857597463440403
6.7E-4                    -0.00151                 0                        0.1131212280076415
6.900000000000001E-4      -0.00151                 0                        0.10732594451032791
7.100000000000001E-4      -0.00151                 0                        0.10119280305676029
7.300000000000002E-4      -0.00151                 0                        0.09474707296705637
7.500000000000002E-4      -0.00151                 0                        0.08796018711648267
7.700000000000003E-4      -0.00151                 0                        0.08082836108507953
7.900000000000003E-4      -0.00151                 0                        0.07333982704570806
8.1E-4                    -0.00151                 0                        0.0654902149325894
8.3E-4                    -0.00151                 0                        0.05732632523489946
8.500000000000001E-4      -0.00151                 0                        0.04877938620101025
8.700000000000001E-4      -0.00151                 0                        0.03984533796186463
8.900000000000002E-4      -0.00151                 0                        0.03316835931504819
9.100000000000002E-4      -0.00151                 0                        0.0333823659616612
9.300000000000003E-4      -0.00151                 0                        0.033590214755102495
9.500000000000003E-4      -0.00151                 0                        0.03379128282959344
9.699999999999999E-4      -0.00151                 0                        0.03398568826310531
9.9E-4                    -0.00151                 0                        0.034173796321518866
0.00101                   -0.00151                 0                        0.03435452605352051
0.00103                   -0.00151                 0                        0.03452739166147912
0.0010500000000000002     -0.00151                 0                        0.03469224018376216
0.0010700000000000002     -0.00151                 0                        0.03484826991878219
0.0010900000000000003     -0.00151                 0                        0.03499494355500365
0.0011100000000000003     -0.00151                 0                        0.03513213638110644
0.0011300000000000004     -0.00151                 0                        0.03526026819758095
0.00115                   -0.00151                 0                        0.035380639535927294
0.00117                   -0.00151                 0                        0.03549276547296658
0.00119                   -0.00151                 0                        0.03559452766423378
0.0012100000000000001     -0.00151                 0                        0.035685926109728906
0.0012300000000000002     -0.00151                 0                        0.03576696080945193
0.0012500000000000002     -0.00151                 0                        0.035837002466145976
0.0012700000000000003     -0.00151                 0                        0.03589559678750606
0.0012900000000000003     -0.00151                 0                        0.03594274237704668
0.00131                   -0.00151                 0                        0.03597869666722108
0.00133                   -0.00151                 0                        0.03600494909418757
0.00135                   -0.00151                 0                        0.0360214996579461
0.0013700000000000001     -0.00151                 0                        0.036028348358496685
0.0013900000000000002     -0.00151                 0                        0.03602549519583933
0.0014100000000000002     -0.00151                 0                        0.03601294016997402
0.0014300000000000003     -0.00151                 0                        0.03599068328090077
0.0014500000000000003     -0.00151                 0                        0.035958724528619555
0.0014700000000000004     -0.00151                 0                        0.03591515977862841
0.00149                   -0.00151                 0                        0.03585742860285601
0.00151                   -0.00151                 0                        0.03579006700874723
-0.00151                  -0.00149                 0                        0.014795841150443821
-0.00149                  -0.00149                 0                        0.014906230915478484
-0.00147                  -0.00149                 0                        0.015018782855417296
-0.0014500000000000001    -0.00149                 0                        0.015125312518358774
-0.00143                  -0.00149                 0                        0.015230087660254752
-0.00141                  -0.00149                 0                        0.015333380871084313
-0.00139                  -0.00149                 0                        0.015434968528330128
-0.0013700000000000001    -0.00149                 0                        0.015534812157849657
-0.00135                  -0.00149                 0                        0.015632911759642928
-0.00133                  -0.00149                 0                        0.01572926733370992
-0.00131                  -0.00149                 0                        0.015823878880050626
-0.0012900000000000001    -0.00149                 0                        0.01591685121795205
-0.00127                  -0.00149                 0                        0.01600859947872152
-0.00125                  -0.00149                 0                        0.016099151906850052
-0.00123                  -0.00149                 0                        0.016189087670138755
-0.0012100000000000001    -0.00149                 0                        0.016277550177752852
-0.00119                  -0.00149                 0                        0.016364402056894416
-0.00117                  -0.00149                 0                        0.016449643307563447
-0.00115                  -0.00149                 0                        0.01653327392975995
-0.00113                  -0.00149                 0                        0.01661522347407427
-0.00111                  -0.00149                 0                        0.016695672293508233
-0.00109                  -0.00149                 0                        0.016775704277590002
-0.00107                  -0.00149                 0                        0.01685358990894018
-0.0010500000000000002    -0.00149                 0                        0.01693049795927386
-0.00103                  -0.00149                 0                        0.01700642636321616
-0.00101                  -0.00149                 0                        0.017081373052172874
-9.9E-4                   -0.00149                 0                        0.0171553359543241
-9.7E-4                   -0.00149                 0                        0.017228312994617904
-9.5E-4                   -0.00149                 0                        0.017300302094763857
-9.3E-4                   -0.00149                 0                        0.01737135655261511
-9.1E-4                   -0.00149                 0                        0.018893463247651034
-8.900000000000001E-4     -0.00149                 0                        0.02268026828532439
-8.7E-4                   -0.00149                 0                        0.026473212104259656
-8.5E-4                   -0.00149                 0                        0.030270732371751177
-8.3E-4                   -0.00149                 0                        0.0340720244558158
-8.1E-4                   -0.00149                 0                        0.0378727064179082
-7.9E-4                   -0.00149                 0                        0.04166858897075362
-7.7E-4                   -0.00149                 0                        0.04546187643816012
-7.5E-4                   -0.00149                 0                        0.049253889597274406
-7.3E-4                   -0.00149                 0                        0.053051659328217315
-7.1E-4                   -0.00149                 0                        0.05683771514944342
-6.9E-4                   -0.00149                 0                        0.06062327771936148
-6.7E-4                   -0.00149                 0                        0.06439800454824159
-6.5E-4                   -0.00149                 0                        0.0681593373440441
-6.3E-4                   -0.00149                 0                        0.07191453384185936
-6.1E-4                   -0.00149                 0                        0.0756655526483969
-5.9E-4                   -0.00149                 0                        0.07940597235272365
-5.7E-4                   -0.00149                 0                        0.08313001699711946
-5.499999999999999E-4     -0.00149                 0                        0.08683011736552833
-5.299999999999999E-4     -0.00149                 0                        0.09052298424596668
-5.1E-4                   -0.00149                 0                        0.09419622224732248
-4.9E-4                   -0.00149                 0                        0.09783458770247369
-4.6999999999999993E-4    -0.00149                 0                        0.10145963689716497
-4.499999999999999E-4     -0.00149                 0                        0.10505592277823729
-4.3000000000000004E-4    -0.00149                 0                        0.10862775254419858
-4.1E-4                   -0.00149                 0                        0.11217603911922792
-3.8999999999999994E-4    -0.00149                 0                        0.11568077532583733
-3.699999999999999E-4     -0.00149                 0                        0.11914521098285734
-3.5000000000000005E-4    -0.00149                 0                        0.12256526398321776
-3.3E-4                   -0.00149                 0                        0.1259396514785392
-3.0999999999999995E-4    -0.00149                 0                        0.12927172832865025
-2.899999999999999E-4     -0.00149                 0                        0.1325479065952323
-2.7000000000000006E-4    -0.00149                 0                        0.13574826715580662
-2.5E-4                   -0.00149                 0                        0.13889450576310503
-2.2999999999999995E-4    -0.00149                 0                        0.1419793700825897
-2.099999999999999E-4     -0.00149                 0                        0.14499757293089954
-1.8999999999999985E-4    -0.00149                 0                        0.14794377795127586
-1.7E-4                   -0.00149                 0                        0.15062309167309976
-1.4999999999999996E-4    -0.00149                 0                        0.15218043780386495
-1.299999999999999E-4     -0.00149                 0                        0.15377833064524396
-1.0999999999999985E-4    -0.00149                 0                        0.15541569065645203
-9.000000000000002E-5     -0.00149                 0                        0.15709146305637656
-6.999999999999997E-5     -0.00149                 0                        0.1588044283023282
-4.9999999999999914E-5    -0.00149                 0                        0.16055905617136554
-2.9999999999999862E-5    -0.00149                 0                        0.16235790227281538
-1.0000000000000026E-5    -0.00149                 0                        0.16419976899472694
1.0000000000000026E-5     -0.00149                 0                        0.16608295229651723
3.000000000000008E-5      -0.00149                 0                        0.1680099528457566
5.000000000000013E-5      -0.00149                 0                        0.16997936178554013
6.999999999999997E-5      -0.00149                 0                        0.17199016152101826
9.000000000000002E-5      -0.00149                 0                        0.17404187826800321
1.1000000000000007E-4     -0.00149                 0                        0.17614187326553257
1.3000000000000012E-4     -0.00149                 0                        0.17828951145409344
1.5000000000000018E-4     -0.00149                 0                        0.1804837346971486
1.7E-4                    -0.00149                 0                        0.18272044220476355
1.9000000000000006E-4     -0.00149                 0                        0.18354692540893958
2.1000000000000012E-4     -0.00149                 0                        0.1839656093520278
2.3000000000000017E-4     -0.00149                 0                        0.18420176259351798
2.5E-4                    -0.00149                 0                        0.1842498085595984
2.7000000000000006E-4     -0.00149                 0                        0.1841052032682298
2.900000000000001E-4      -0.00149                 0                        0.18374570556214542
3.1000000000000016E-4     -0.00149                 0                        0.18317398109482008
3.3E-4                    -0.00149                 0                        0.1823864413992399
3.5000000000000005E-4     -0.00149                 0                        0.18136773172995838
3.700000000000001E-4      -0.00149                 0                        0.18011149312046254
3.9000000000000016E-4     -0.00149                 0                        0.17863530831055274
4.100000000000002E-4      -0.00149                 0                        0.1769391775057238
4.3000000000000004E-4     -0.00149                 0                        0.174956647544711
4.500000000000003E-4      -0.00149                 0                        0.1727207991194232
4.6999999999999993E-4     -0.00149                 0                        0.1702239658688079
4.9E-4                    -0.00149                 0                        0.1674896450297338
5.1E-4                    -0.00149                 0                        0.16448546445551018
5.300000000000001E-4      -0.00149                 0                        0.1611813444814556
5.500000000000001E-4      -0.00149                 0                        0.1575967071087065
5.700000000000002E-4      -0.00149                 0                        0.15370425591592995
5.900000000000002E-4      -0.00149                 0                        0.1495366000136264
6.100000000000003E-4      -0.00149                 0                        0.1450574371388243
6.299999999999999E-4      -0.00149                 0                        0.1402641075227322
6.5E-4                    -0.00149                 0                        0.13518308532229295
6.7E-4                    -0.00149                 0                        0.12978076858859255
6.900000000000001E-4      -0.00149                 0                        0.12404598440703707
7.100000000000001E-4      -0.00149                 0                        0.11795450632442701
7.300000000000002E-4      -0.00149                 0                        0.11152523865217938
7.500000000000002E-4      -0.00149                 0                        0.10475473458683257
7.700000000000003E-4      -0.00149                 0                        0.09763848404666195
7.900000000000003E-4      -0.00149                 0                        0.0901738573567159
8.1E-4                    -0.00149                 0                        0.08234389699775523
8.3E-4                    -0.00149                 0                        0.07416307097972294
8.500000000000001E-4      -0.00149                 0                        0.0655933178798011
8.700000000000001E-4      -0.00149                 0                        0.056632252796144776
8.900000000000002E-4      -0.00149                 0                        0.04727754346092951
9.100000000000002E-4      -0.00149                 0                        0.03752690896053385
9.300000000000003E-4      -0.00149                 0                        0.03373571195997876
9.500000000000003E-4      -0.00149                 0                        0.033945297217859015
9.699999999999999E-4      -0.00149                 0                        0.034148887980064165
9.9E-4                    -0.00149                 0                        0.034345815674200815
0.00101                   -0.00149                 0                        0.03453542738615066
0.00103                   -0.00149                 0                        0.0347172561569781
0.0010500000000000002     -0.00149                 0                        0.03489079872084288
0.0010700000000000002     -0.00149                 0                        0.03505540057040326
0.0010900000000000003     -0.00149                 0                        0.035210858953214984
0.0011100000000000003     -0.00149                 0                        0.03535701998745895
0.0011300000000000004     -0.00149                 0                        0.03549386096592454
0.00115                   -0.00149                 0                        0.035621991750579056
0.00117                   -0.00149                 0                        0.03574144585558621
0.00119                   -0.00149                 0                        0.035850536214821295
0.0012100000000000001     -0.00149                 0                        0.03594926282828429
0.0012300000000000002     -0.00149                 0                        0.03603757010200696
0.0012500000000000002     -0.00149                 0                        0.03611480069909635
0.0012700000000000003     -0.00149                 0                        0.03618083376661633
0.0012900000000000003     -0.00149                 0                        0.03623566930456688
0.00131                   -0.00149                 0                        0.036278030906080845
0.00133                   -0.00149                 0                        0.036309295423705
0.00135                   -0.00149                 0                        0.036330858078121205
0.0013700000000000001     -0.00149                 0                        0.036342718869329466
0.0013900000000000002     -0.00149                 0                        0.03634487779732977
0.0014100000000000002     -0.00149                 0                        0.036337334862122136
0.0014300000000000003     -0.00149                 0                        0.03632009006370655
0.0014500000000000003     -0.00149                 0                        0.03629133874331881
0.0014700000000000004     -0.00149                 0                        0.03625437500071475
0.00149                   -0.00149                 0                        0.03620177079176115
0.00151                   -0.00149                 0                        0.03613630785559032
-0.00151                  -0.00147                 0                        0.014840684429671283
-0.00149                  -0.00147                 0                        0.014949351831085046
-0.00147                  -0.00147                 0                        0.015056232133373827
-0.0014500000000000001    -0.00147                 0                        0.015160560420118398