% Model:              cuff_3d_14electrodes.mph
% Version:            COMSOL 5.3.0.260
% Date:               Oct 1 2019, 23:05
% Dimension:          3
% Nodes:              23104
% Expressions:        1
% Description:        Electric potential
% Length unit:        m
% X                       Y                        Z                        V (V)
-0.00151                  -0.00151                 0                        0.03109900985696789
-0.00149                  -0.00151                 0                        0.03141035296420858
-0.00147                  -0.00151                 0                        0.031725304323299064
-0.0014500000000000001    -0.00151                 0                        0.03203637968290892
-0.00143                  -0.00151                 0                        0.032337652581623084
-0.00141                  -0.00151                 0                        0.032636311880807484
-0.00139                  -0.00151                 0                        0.03293235758046217
-0.0013700000000000001    -0.00151                 0                        0.03322578968058709
-0.00135                  -0.00151                 0                        0.0335165502370047
-0.00133                  -0.00151                 0                        0.033803990666382865
-0.00131                  -0.00151                 0                        0.034088361137911416
-0.0012900000000000001    -0.00151                 0                        0.034369364310802925
-0.00127                  -0.00151                 0                        0.03464898092264128
-0.00125                  -0.00151                 0                        0.034926729553176133
-0.00123                  -0.00151                 0                        0.03520241074959781
-0.0012100000000000001    -0.00151                 0                        0.03547742284110885
-0.00119                  -0.00151                 0                        0.03574865554558739
-0.00117                  -0.00151                 0                        0.03601610886303347
-0.00115                  -0.00151                 0                        0.03627963140554831
-0.00113                  -0.00151                 0                        0.036539331401018726
-0.00111                  -0.00151                 0                        0.03679632976006074
-0.00109                  -0.00151                 0                        0.03705474168608253
-0.00107                  -0.00151                 0                        0.03730715080809657
-0.0010500000000000002    -0.00151                 0                        0.03755452151011718
-0.00103                  -0.00151                 0                        0.03779882562641315
-0.00101                  -0.00151                 0                        0.03804005870178351
-9.9E-4                   -0.00151                 0                        0.03827821627381123
-9.7E-4                   -0.00151                 0                        0.038513293872848964
-9.5E-4                   -0.00151                 0                        0.03874528702200447
-9.3E-4                   -0.00151                 0                        0.038974094455867345
-9.1E-4                   -0.00151                 0                        0.039200050579496125
-8.900000000000001E-4     -0.00151                 0                        0.03942349938150436
-8.7E-4                   -0.00151                 0                        0.05095974627372783
-8.5E-4                   -0.00151                 0                        0.06715238349167557
-8.3E-4                   -0.00151                 0                        0.08379845785508139
-8.1E-4                   -0.00151                 0                        0.10086413388086964
-7.9E-4                   -0.00151                 0                        0.11832795515880662
-7.7E-4                   -0.00151                 0                        0.13649026755246663
-7.5E-4                   -0.00151                 0                        0.15532495221577775
-7.3E-4                   -0.00151                 0                        0.17465669054086785
-7.1E-4                   -0.00151                 0                        0.19436680966076153
-6.9E-4                   -0.00151                 0                        0.21476775831237255
-6.7E-4                   -0.00151                 0                        0.23595670992810402
-6.5E-4                   -0.00151                 0                        0.2578462545418824
-6.3E-4                   -0.00151                 0                        0.2804461451830515
-6.1E-4                   -0.00151                 0                        0.30380064421935116
-5.9E-4                   -0.00151                 0                        0.32798529825160166
-5.7E-4                   -0.00151                 0                        0.3529856301608782
-5.499999999999999E-4     -0.00151                 0                        0.37879110943155186
-5.299999999999999E-4     -0.00151                 0                        0.4058462442716438
-5.1E-4                   -0.00151                 0                        0.43393557325226173
-4.9E-4                   -0.00151                 0                        0.46297575589799334
-4.6999999999999993E-4    -0.00151                 0                        0.4929923348940711
-4.499999999999999E-4     -0.00151                 0                        0.5243684413825461
-4.3000000000000004E-4    -0.00151                 0                        0.5571700247520472
-4.1E-4                   -0.00151                 0                        0.5912160441161279
-3.8999999999999994E-4    -0.00151                 0                        0.6268316610032969
-3.699999999999999E-4     -0.00151                 0                        0.664281584758011
-3.5000000000000005E-4    -0.00151                 0                        0.7035253556759888
-3.3E-4                   -0.00151                 0                        0.7445221274496897
-3.0999999999999995E-4    -0.00151                 0                        0.7879688792740509
-2.899999999999999E-4     -0.00151                 0                        0.833398008657256
-2.7000000000000006E-4    -0.00151                 0                        0.8803689026158077
-2.5E-4                   -0.00151                 0                        0.9301876439131483
-2.2999999999999995E-4    -0.00151                 0                        0.9840983009221852
-2.099999999999999E-4     -0.00151                 0                        1.0419762819986895
-1.8999999999999985E-4    -0.00151                 0                        1.103495010061861
-1.7E-4                   -0.00151                 0                        1.168253303899892
-1.4999999999999996E-4    -0.00151                 0                        1.2394349526580686
-1.299999999999999E-4     -0.00151                 0                        1.3144489509226764
-1.0999999999999985E-4    -0.00151                 0                        1.3960350682124951
-9.000000000000002E-5     -0.00151                 0                        1.4846846548956478
-6.999999999999997E-5     -0.00151                 0                        1.5797563776492283
-4.9999999999999914E-5    -0.00151                 0                        1.6865694847578099
-2.9999999999999862E-5    -0.00151                 0                        1.809588379000834
-1.0000000000000026E-5    -0.00151                 0                        1.9476907373365184
1.0000000000000026E-5     -0.00151                 0                        2.134238677070111
3.000000000000008E-5      -0.00151                 0                        2.317386402300261
5.000000000000013E-5      -0.00151                 0                        2.571428343098475
6.999999999999997E-5      -0.00151                 0                        2.9031749208965665
9.000000000000002E-5      -0.00151                 0                        3.0063769455726193
1.1000000000000007E-4     -0.00151                 0                        3.0092680250129185
1.3000000000000012E-4     -0.00151                 0                        3.014081472910974
1.5000000000000018E-4     -0.00151                 0                        3.0094723251403535
1.7E-4                    -0.00151                 0                        2.985031728850188
1.9000000000000006E-4     -0.00151                 0                        2.9566712451399413
2.1000000000000012E-4     -0.00151                 0                        2.925146674433134
2.3000000000000017E-4     -0.00151                 0                        2.8854592973071376
2.5E-4                    -0.00151                 0                        2.8423712641021766
2.7000000000000006E-4     -0.00151                 0                        2.7959284984220005
2.900000000000001E-4      -0.00151                 0                        2.7453172151978373
3.1000000000000016E-4     -0.00151                 0                        2.691171292076045
3.3E-4                    -0.00151                 0                        2.633790711437125
3.5000000000000005E-4     -0.00151                 0                        2.572301999915894
3.700000000000001E-4      -0.00151                 0                        2.5066136621568296
3.9000000000000016E-4     -0.00151                 0                        2.4369941046834254
4.100000000000002E-4      -0.00151                 0                        2.3634455371537766
4.3000000000000004E-4     -0.00151                 0                        2.2840140556747635
4.500000000000003E-4      -0.00151                 0                        2.199247470258576
4.6999999999999993E-4     -0.00151                 0                        2.1098714315010265
4.9E-4                    -0.00151                 0                        2.0149513524857134
5.1E-4                    -0.00151                 0                        1.9154769603460304
5.300000000000001E-4      -0.00151                 0                        1.8114633788366694
5.500000000000001E-4      -0.00151                 0                        1.7024748714654065
5.700000000000002E-4      -0.00151                 0                        1.578013213965827
5.900000000000002E-4      -0.00151                 0                        1.4516262633546395
6.100000000000003E-4      -0.00151                 0                        1.324907586499775
6.299999999999999E-4      -0.00151                 0                        1.196640774950055
6.5E-4                    -0.00151                 0                        1.0749876931130427
6.7E-4                    -0.00151                 0                        0.9542654789895478
6.900000000000001E-4      -0.00151                 0                        0.8381548792213226
7.100000000000001E-4      -0.00151                 0                        0.7277103548109539
7.300000000000002E-4      -0.00151                 0                        0.6264949746023483
7.500000000000002E-4      -0.00151                 0                        0.530462244723189
7.700000000000003E-4      -0.00151                 0                        0.44276425811145376
7.900000000000003E-4      -0.00151                 0                        0.3618648701269917
8.1E-4                    -0.00151                 0                        0.28495011857797714
8.3E-4                    -0.00151                 0                        0.21516608848361107
8.500000000000001E-4      -0.00151                 0                        0.15009159076028994
8.700000000000001E-4      -0.00151                 0                        0.08974706786037487
8.900000000000002E-4      -0.00151                 0                        0.04887431965118013
9.100000000000002E-4      -0.00151                 0                        0.048729749167516656
9.300000000000003E-4      -0.00151                 0                        0.048576402990193605
9.500000000000003E-4      -0.00151                 0                        0.04841282379798087
9.699999999999999E-4      -0.00151                 0                        0.04823866067564535
9.9E-4                    -0.00151                 0                        0.04805664796862571
0.00101                   -0.00151                 0                        0.04786508204817231
0.00103                   -0.00151                 0                        0.04766340280179329
0.0010500000000000002     -0.00151                 0                        0.04745455255455338
0.0010700000000000002     -0.00151                 0                        0.04723845090033635
0.0010900000000000003     -0.00151                 0                        0.047012169676344674
0.0011100000000000003     -0.00151                 0                        0.04677543342778642
0.0011300000000000004     -0.00151                 0                        0.04653067214178258
0.00115                   -0.00151                 0                        0.04627930713470313
0.00117                   -0.00151                 0                        0.046020660867993245
0.00119                   -0.00151                 0                        0.04575385830561821
0.0012100000000000001     -0.00151                 0                        0.04547889944757804
0.0012300000000000002     -0.00151                 0                        0.045195784293872755
0.0012500000000000002     -0.00151                 0                        0.04490331063263589
0.0012700000000000003     -0.00151                 0                        0.04460140274028599
0.0012900000000000003     -0.00151                 0                        0.04429036572647902
0.00131                   -0.00151                 0                        0.04397142633240122
0.00133                   -0.00151                 0                        0.04364731674926192
0.00135                   -0.00151                 0                        0.04331803697706108
0.0013700000000000001     -0.00151                 0                        0.04298358701579871
0.0013900000000000002     -0.00151                 0                        0.042643966865474836
0.0014100000000000002     -0.00151                 0                        0.042299176526089395
0.0014300000000000003     -0.00151                 0                        0.04194921599764246
0.0014500000000000003     -0.00151                 0                        0.041594085280133974
0.0014700000000000004     -0.00151                 0                        0.04123313244526933
0.00149                   -0.00151                 0                        0.04086496420828629
0.00151                   -0.00151                 0                        0.040492023641475194
-0.00151                  -0.00149                 0                        0.03114908097586905
-0.00149                  -0.00149                 0                        0.031455205568893495
-0.00147                  -0.00149                 0                        0.03176838423635467
-0.0014500000000000001    -0.00149                 0                        0.03206844327283206
-0.00143                  -0.00149                 0                        0.03236543811286176
-0.00141                  -0.00149                 0                        0.03265998115445054
-0.00139                  -0.00149                 0                        0.03295154019047096
-0.0013700000000000001    -0.00149                 0                        0.033240029268641745
-0.00135                  -0.00149                 0                        0.03352544838896295
-0.00133                  -0.00149                 0                        0.03380779755143456
-0.00131                  -0.00149                 0                        0.03408707675605651
-0.0012900000000000001    -0.00149                 0                        0.03436286772198814
-0.00127                  -0.00149                 0                        0.03463666443922731
-0.00125                  -0.00149                 0                        0.03490869778729999
-0.00123                  -0.00149                 0                        0.035180468345959524
-0.0012100000000000001    -0.00149                 0                        0.03544938391804609
-0.00119                  -0.00149                 0                        0.03571452010310017
-0.00117                  -0.00149                 0                        0.03597587690112174
-0.00115                  -0.00149                 0                        0.036233454312110835
-0.00113                  -0.00149                 0                        0.03648721908267481
-0.00111                  -0.00149                 0                        0.03673792931353723
-0.00109                  -0.00149                 0                        0.03698829936472412
-0.00107                  -0.00149                 0                        0.0372322493561813
-0.0010500000000000002    -0.00149                 0                        0.03747313088383476
-0.00103                  -0.00149                 0                        0.03771093949149347
-0.00101                  -0.00149                 0                        0.03794567071574982
-9.9E-4                   -0.00149                 0                        0.038177320085965145
-9.7E-4                   -0.00149                 0                        0.03840588312425532
-9.5E-4                   -0.00149                 0                        0.038631355345476175
-9.3E-4                   -0.00149                 0                        0.038852866544600184
-9.1E-4                   -0.00149                 0                        0.045113104443813605
-8.900000000000001E-4     -0.00149                 0                        0.06108663046963668
-8.7E-4                   -0.00149                 0                        0.0774797082968918
-8.5E-4                   -0.00149                 0                        0.09432154836287997
-8.3E-4                   -0.00149                 0                        0.11168740353627787
-8.1E-4                   -0.00149                 0                        0.12951452035075797
-7.9E-4                   -0.00149                 0                        0.14779881388996213
-7.7E-4                   -0.00149                 0                        0.16671878371894988
-7.5E-4                   -0.00149                 0                        0.18629543385536207
-7.3E-4                   -0.00149                 0                        0.20652513923368498
-7.1E-4                   -0.00149                 0                        0.22720876110704655
-6.9E-4                   -0.00149                 0                        0.24860689429705224
-6.7E-4                   -0.00149                 0                        0.27078629489181194
-6.5E-4                   -0.00149                 0                        0.2936972902075021
-6.3E-4                   -0.00149                 0                        0.3173591094233414
-6.1E-4                   -0.00149                 0                        0.3419383811934296
-5.9E-4                   -0.00149                 0                        0.36737218476258554
-5.7E-4                   -0.00149                 0                        0.3935830154008524
-5.499999999999999E-4     -0.00149                 0                        0.420824871754312
-5.299999999999999E-4     -0.00149                 0                        0.44926898827563183
-5.1E-4                   -0.00149                 0                        0.47883596906278647
-4.9E-4                   -0.00149                 0                        0.5093547134950932
-4.6999999999999993E-4    -0.00149                 0                        0.5410432106255811
-4.499999999999999E-4     -0.00149                 0                        0.5742567110038126
-4.3000000000000004E-4    -0.00149                 0                        0.6089124591344823
-4.1E-4                   -0.00149                 0                        0.6448081820333604
-3.8999999999999994E-4    -0.00149                 0                        0.6823287210616937
-3.699999999999999E-4     -0.00149                 0                        0.7219769108734079
-3.5000000000000005E-4    -0.00149                 0                        0.7634518617393574
-3.3E-4                   -0.00149                 0                        0.8067615319074637
-3.0999999999999995E-4    -0.00149                 0                        0.852601428713719
-2.899999999999999E-4     -0.00149                 0                        0.9005740203360748
-2.7000000000000006E-4    -0.00149                 0                        0.9503863508251488
-2.5E-4                   -0.00149                 0                        1.0032041583192328
-2.2999999999999995E-4    -0.00149                 0                        1.06017407319577
-2.099999999999999E-4     -0.00149                 0                        1.1211725468562732
-1.8999999999999985E-4    -0.00149                 0                        1.1860732321012095
-1.7E-4                   -0.00149                 0                        1.2529758264423625
-1.4999999999999996E-4    -0.00149                 0                        1.314820341730868
-1.299999999999999E-4     -0.00149                 0                        1.3841723644853017
-1.0999999999999985E-4    -0.00149                 0                        1.461056126872033
-9.000000000000002E-5     -0.00149                 0                        1.5454937298193117
-6.999999999999997E-5     -0.00149                 0                        1.6399377143486469
-4.9999999999999914E-5    -0.00149                 0                        1.7461225050905602
-2.9999999999999862E-5    -0.00149                 0                        1.8683207479737507
-1.0000000000000026E-5    -0.00149                 0                        2.0078192257346124
1.0000000000000026E-5     -0.00149                 0                        2.1715435982475433
3.000000000000008E-5      -0.00149                 0                        2.3866969242115395
5.000000000000013E-5      -0.00149                 0                        2.694920593406672
6.999999999999997E-5      -0.00149                 0                        3.098715555218284
9.000000000000002E-5      -0.00149                 0                        3.1679979569967225
1.1000000000000007E-4     -0.00149                 0                        3.203394252836937
1.3000000000000012E-4     -0.00149                 0                        3.2365253108904364
1.5000000000000018E-4     -0.00149                 0                        3.26870813015638
1.7E-4                    -0.00149                 0                        3.2912047473261508
1.9000000000000006E-4     -0.00149                 0                        3.262628739687124
2.1000000000000012E-4     -0.00149                 0                        3.2226891919653218
2.3000000000000017E-4     -0.00149                 0                        3.1794223828729615
2.5E-4                    -0.00149                 0                        3.1329279571026265
2.7000000000000006E-4     -0.00149                 0                        3.0832769158843716
2.900000000000001E-4      -0.00149                 0                        3.0299752858516245
3.1000000000000016E-4     -0.00149                 0                        2.9732361897637523
3.3E-4                    -0.00149                 0                        2.9133362094569883
3.5000000000000005E-4     -0.00149                 0                        2.849538369190379
3.700000000000001E-4      -0.00149                 0                        2.781202493771647
3.9000000000000016E-4     -0.00149                 0                        2.708836785330927
4.100000000000002E-4      -0.00149                 0                        2.632441242264261
4.3000000000000004E-4     -0.00149                 0                        2.551922838090243
4.500000000000003E-4      -0.00149                 0                        2.4656010155046135
4.6999999999999993E-4     -0.00149                 0                        2.374913888163542
4.9E-4                    -0.00149                 0                        2.27573680123463
5.1E-4                    -0.00149                 0                        2.171182812242448
5.300000000000001E-4      -0.00149                 0                        2.0619543214710347
5.500000000000001E-4      -0.00149                 0                        1.9472111654871993
5.700000000000002E-4      -0.00149                 0                        1.8093434588794612
5.900000000000002E-4      -0.00149                 0                        1.6652974181734683
6.100000000000003E-4      -0.00149                 0                        1.5237741731024088
6.299999999999999E-4      -0.00149                 0                        1.3823383762984898
6.5E-4                    -0.00149                 0                        1.2439627676388731
6.7E-4                    -0.00149                 0                        1.1130202025824893
6.900000000000001E-4      -0.00149                 0                        0.987249187271341
7.100000000000001E-4      -0.00149                 0                        0.8676180808318752
7.300000000000002E-4      -0.00149                 0                        0.7575580416454657
7.500000000000002E-4      -0.00149                 0                        0.654210669700805
7.700000000000003E-4      -0.00149                 0                        0.559233362336997
7.900000000000003E-4      -0.00149                 0                        0.4725454982052651
8.1E-4                    -0.00149                 0                        0.39200647905929714
8.3E-4                    -0.00149                 0                        0.3176830806869372
8.500000000000001E-4      -0.00149                 0                        0.24810123543028406
8.700000000000001E-4      -0.00149                 0                        0.18334765947713055
8.900000000000002E-4      -0.00149                 0                        0.12350780377306876
9.100000000000002E-4      -0.00149                 0                        0.06866587581073787
9.300000000000003E-4      -0.00149                 0                        0.048501846293273115
9.500000000000003E-4      -0.00149                 0                        0.048346243705590056
9.699999999999999E-4      -0.00149                 0                        0.048181402335868304
9.9E-4                    -0.00149                 0                        0.04800775710075444
0.00101                   -0.00149                 0                        0.04782470983667126
0.00103                   -0.00149                 0                        0.04763175592983736
0.0010500000000000002     -0.00149                 0                        0.047430294455896624
0.0010700000000000002     -0.00149                 0                        0.04722207932363883
0.0010900000000000003     -0.00149                 0                        0.04700352959365796
0.0011100000000000003     -0.00149                 0                        0.04677510432255331
0.0011300000000000004     -0.00149                 0                        0.046537332152657845
0.00115                   -0.00149                 0                        0.04629258589131013
0.00117                   -0.00149                 0                        0.046040736931778965
0.00119                   -0.00149                 0                        0.04578073167658264
0.0012100000000000001     -0.00149                 0                        0.045512570125721206
0.0012300000000000002     -0.00149                 0                        0.04523603244753346
0.0012500000000000002     -0.00149                 0                        0.04495014963656363
0.0012700000000000003     -0.00149                 0                        0.04465550647874066
0.0012900000000000003     -0.00149                 0                        0.04435210297406454
0.00131                   -0.00149                 0                        0.04403873577405121
0.00133                   -0.00149                 0                        0.04371838936306004
0.00135                   -0.00149                 0                        0.04339287276300734
0.0013700000000000001     -0.00149                 0                        0.04306218597389311
0.0013900000000000002     -0.00149                 0                        0.042726328995717364
0.0014100000000000002     -0.00149                 0                        0.042385301828480076
0.0014300000000000003     -0.00149                 0                        0.04203910447218127
0.0014500000000000003     -0.00149                 0                        0.04168846668121422
0.0014700000000000004     -0.00149                 0                        0.041333025973695696
0.00149                   -0.00149                 0                        0.040970506656290755
0.00151                   -0.00149                 0                        0.040600559921523754
-0.00151                  -0.00147                 0                        0.03119305339194258
-0.00149                  -0.00147                 0                        0.03149573148217339
-0.00147                  -0.00147                 0                        0.031795581497026576
-0.0014500000000000001    -0.00147                 0                        0.03209125913968926
-0.00143                  -0.00147                 0                        0.03238386682450234
-0.00141                  -0.00147                 0                        0.032673404551465786