% Model:              cuff_3d_14electrodes.mph
% Version:            COMSOL 5.3.0.260
% Date:               Oct 1 2019, 23:05
% Dimension:          3
% Nodes:              23104
% Expressions:        1
% Description:        Electric potential
% Length unit:        m
% X                       Y                        Z                        V (V)
-0.00151                  -0.00151                 0                        0.040518565672779276
-0.00149                  -0.00151                 0                        0.040898323791430914
-0.00147                  -0.00151                 0                        0.04127998734838685
-0.0014500000000000001    -0.00151                 0                        0.041654204042960094
-0.00143                  -0.00151                 0                        0.04201276722507924
-0.00141                  -0.00151                 0                        0.04236473064569377
-0.00139                  -0.00151                 0                        0.0427100943048038
-0.0013700000000000001    -0.00151                 0                        0.04304885820240924
-0.00135                  -0.00151                 0                        0.04338090632786699
-0.00133                  -0.00151                 0                        0.04370516537511771
-0.00131                  -0.00151                 0                        0.04402231551343964
-0.0012900000000000001    -0.00151                 0                        0.044330915871719744
-0.00127                  -0.00151                 0                        0.044634465290673206
-0.00125                  -0.00151                 0                        0.0449322280359323
-0.00123                  -0.00151                 0                        0.04522384270750048
-0.0012100000000000001    -0.00151                 0                        0.04551165439405778
-0.00119                  -0.00151                 0                        0.04579032885882534
-0.00117                  -0.00151                 0                        0.04605986610180318
-0.00115                  -0.00151                 0                        0.04631988180867757
-0.00113                  -0.00151                 0                        0.0465706704114483
-0.00111                  -0.00151                 0                        0.046813561763837094
-0.00109                  -0.00151                 0                        0.047052941601521285
-0.00107                  -0.00151                 0                        0.04728070129054239
-0.0010500000000000002    -0.00151                 0                        0.047497375294624486
-0.00103                  -0.00151                 0                        0.047705225350843414
-0.00101                  -0.00151                 0                        0.047904244637458494
-9.9E-4                   -0.00151                 0                        0.04809442632227561
-9.7E-4                   -0.00151                 0                        0.04827576356262684
-9.5E-4                   -0.00151                 0                        0.04844824950534979
-9.3E-4                   -0.00151                 0                        0.04861170429475239
-9.1E-4                   -0.00151                 0                        0.04876582503394427
-8.900000000000001E-4     -0.00151                 0                        0.04891104316086935
-8.7E-4                   -0.00151                 0                        0.08995544961852563
-8.5E-4                   -0.00151                 0                        0.1504731967649839
-8.3E-4                   -0.00151                 0                        0.21564723270076447
-8.1E-4                   -0.00151                 0                        0.285071520710122
-7.9E-4                   -0.00151                 0                        0.35912836910487356
-7.7E-4                   -0.00151                 0                        0.4422050793438695
-7.5E-4                   -0.00151                 0                        0.5325581458775366
-7.3E-4                   -0.00151                 0                        0.6287835567646285
-7.1E-4                   -0.00151                 0                        0.729650637171234
-6.9E-4                   -0.00151                 0                        0.8392569791629074
-6.7E-4                   -0.00151                 0                        0.9557343204060836
-6.5E-4                   -0.00151                 0                        1.0769956205537858
-6.3E-4                   -0.00151                 0                        1.2025018714044755
-6.1E-4                   -0.00151                 0                        1.3277301183869084
-5.9E-4                   -0.00151                 0                        1.4532616008880457
-5.7E-4                   -0.00151                 0                        1.579980515668079
-5.499999999999999E-4     -0.00151                 0                        1.7050827875104235
-5.299999999999999E-4     -0.00151                 0                        1.81117751599145
-5.1E-4                   -0.00151                 0                        1.9164535099399702
-4.9E-4                   -0.00151                 0                        2.017264858197213
-4.6999999999999993E-4    -0.00151                 0                        2.1134130538955826
-4.499999999999999E-4     -0.00151                 0                        2.203512484086602
-4.3000000000000004E-4    -0.00151                 0                        2.2877315381488774
-4.1E-4                   -0.00151                 0                        2.365331615523879
-3.8999999999999994E-4    -0.00151                 0                        2.438125303685491
-3.699999999999999E-4     -0.00151                 0                        2.507377268460492
-3.5000000000000005E-4    -0.00151                 0                        2.5730669633205503
-3.3E-4                   -0.00151                 0                        2.6351741637477017
-3.0999999999999995E-4    -0.00151                 0                        2.6932722819584884
-2.899999999999999E-4     -0.00151                 0                        2.74652635936683
-2.7000000000000006E-4    -0.00151                 0                        2.7959540489699557
-2.5E-4                   -0.00151                 0                        2.8423935644132357
-2.2999999999999995E-4    -0.00151                 0                        2.8857699451624272
-2.099999999999999E-4     -0.00151                 0                        2.9259834844565873
-1.8999999999999985E-4    -0.00151                 0                        2.9613455621756613
-1.7E-4                   -0.00151                 0                        2.983924272353501
-1.4999999999999996E-4    -0.00151                 0                        3.01126090930501
-1.299999999999999E-4     -0.00151                 0                        3.0082282348927265
-1.0999999999999985E-4    -0.00151                 0                        3.004822829515578
-9.000000000000002E-5     -0.00151                 0                        3.003734865484902
-6.999999999999997E-5     -0.00151                 0                        2.895002426933457
-4.9999999999999914E-5    -0.00151                 0                        2.548716108682519
-2.9999999999999862E-5    -0.00151                 0                        2.2967245819497704
-1.0000000000000026E-5    -0.00151                 0                        2.1282565984728774
1.0000000000000026E-5     -0.00151                 0                        1.9455834611725236
3.000000000000008E-5      -0.00151                 0                        1.8056688735779975
5.000000000000013E-5      -0.00151                 0                        1.6817316863297624
6.999999999999997E-5      -0.00151                 0                        1.574735530778744
9.000000000000002E-5      -0.00151                 0                        1.4793154176431018
1.1000000000000007E-4     -0.00151                 0                        1.3903715041164195
1.3000000000000012E-4     -0.00151                 0                        1.3086694334967823
1.5000000000000018E-4     -0.00151                 0                        1.233548080833218
1.7E-4                    -0.00151                 0                        1.1643763154444824
1.9000000000000006E-4     -0.00151                 0                        1.1000020748559902
2.1000000000000012E-4     -0.00151                 0                        1.0388107706912237
2.3000000000000017E-4     -0.00151                 0                        0.981390917793113
2.5E-4                    -0.00151                 0                        0.9277658205088102
2.7000000000000006E-4     -0.00151                 0                        0.8780109426825726
2.900000000000001E-4      -0.00151                 0                        0.8308956850887015
3.1000000000000016E-4     -0.00151                 0                        0.7856310978730726
3.3E-4                    -0.00151                 0                        0.7425056787659756
3.5000000000000005E-4     -0.00151                 0                        0.7018198555013503
3.700000000000001E-4      -0.00151                 0                        0.6629458703636094
3.9000000000000016E-4     -0.00151                 0                        0.6257085203892594
4.100000000000002E-4      -0.00151                 0                        0.590112342054303
4.3000000000000004E-4     -0.00151                 0                        0.5558747916513828
4.500000000000003E-4      -0.00151                 0                        0.5230889758136136
4.6999999999999993E-4     -0.00151                 0                        0.49195015396447617
4.9E-4                    -0.00151                 0                        0.46210708175621257
5.1E-4                    -0.00151                 0                        0.43313327812380636
5.300000000000001E-4      -0.00151                 0                        0.4050612205071682
5.500000000000001E-4      -0.00151                 0                        0.3780764556026085
5.700000000000002E-4      -0.00151                 0                        0.35232146544828913
5.900000000000002E-4      -0.00151                 0                        0.3273531763416314
6.100000000000003E-4      -0.00151                 0                        0.3031796044179963
6.299999999999999E-4      -0.00151                 0                        0.2799385348201946
6.5E-4                    -0.00151                 0                        0.2574142372215781
6.7E-4                    -0.00151                 0                        0.23559731222544475
6.900000000000001E-4      -0.00151                 0                        0.21445511906935927
7.100000000000001E-4      -0.00151                 0                        0.19401636602856748
7.300000000000002E-4      -0.00151                 0                        0.1743149014201416
7.500000000000002E-4      -0.00151                 0                        0.15509577060412041
7.700000000000003E-4      -0.00151                 0                        0.13650749885811386
7.900000000000003E-4      -0.00151                 0                        0.11845379384589351
8.1E-4                    -0.00151                 0                        0.10077067778138953
8.3E-4                    -0.00151                 0                        0.08369729369540206
8.500000000000001E-4      -0.00151                 0                        0.06707436876078345
8.700000000000001E-4      -0.00151                 0                        0.05090903106670644
8.900000000000002E-4      -0.00151                 0                        0.03939516785819317
9.100000000000002E-4      -0.00151                 0                        0.03917249940763444
9.300000000000003E-4      -0.00151                 0                        0.03894712845246107
9.500000000000003E-4      -0.00151                 0                        0.0387175086277891
9.699999999999999E-4      -0.00151                 0                        0.03848298249640965
9.9E-4                    -0.00151                 0                        0.03824744155929093
0.00101                   -0.00151                 0                        0.0380082947743442
0.00103                   -0.00151                 0                        0.037765114710526695
0.0010500000000000002     -0.00151                 0                        0.03752039514328882
0.0010700000000000002     -0.00151                 0                        0.037273717521554874
0.0010900000000000003     -0.00151                 0                        0.037022763699498126
0.0011100000000000003     -0.00151                 0                        0.036767252342046364
0.0011300000000000004     -0.00151                 0                        0.036508798522105625
0.00115                   -0.00151                 0                        0.03624873281513081
0.00117                   -0.00151                 0                        0.03598659315570025
0.00119                   -0.00151                 0                        0.035721277688578454
0.0012100000000000001     -0.00151                 0                        0.03545278641376542
0.0012300000000000002     -0.00151                 0                        0.03518111933126114
0.0012500000000000002     -0.00151                 0                        0.03490524944207424
0.0012700000000000003     -0.00151                 0                        0.03462503324376552
0.0012900000000000003     -0.00151                 0                        0.03434083602891326
0.00131                   -0.00151                 0                        0.0340534340605968
0.00133                   -0.00151                 0                        0.03376433200900311
0.00135                   -0.00151                 0                        0.03347352987413217
0.0013700000000000001     -0.00151                 0                        0.03318102765598397
0.0013900000000000002     -0.00151                 0                        0.03288682535455854
0.0014100000000000002     -0.00151                 0                        0.03259092296985584
0.0014300000000000003     -0.00151                 0                        0.032293320501875916
0.0014500000000000003     -0.00151                 0                        0.031994017950618715
0.0014700000000000004     -0.00151                 0                        0.03169226103867578
0.00149                   -0.00151                 0                        0.03138641590696002
0.00151                   -0.00151                 0                        0.031079089484472692
-0.00151                  -0.00149                 0                        0.040636299609170166
-0.00149                  -0.00149                 0                        0.04101090227604337
-0.00147                  -0.00149                 0                        0.04139169160559743
-0.0014500000000000001    -0.00149                 0                        0.041752814178439644
-0.00143                  -0.00149                 0                        0.042106763379066624
-0.00141                  -0.00149                 0                        0.04245384461483892
-0.00139                  -0.00149                 0                        0.04279380085132097
-0.0013700000000000001    -0.00149                 0                        0.043126648178874225
-0.00135                  -0.00149                 0                        0.04345238659749874
-0.00133                  -0.00149                 0                        0.04377101610719447
-0.00131                  -0.00149                 0                        0.044082536707961376
-0.0012900000000000001    -0.00149                 0                        0.04438539324147437
-0.00127                  -0.00149                 0                        0.04468214532449765
-0.00125                  -0.00149                 0                        0.04497332473813773
-0.00123                  -0.00149                 0                        0.04526157356312138
-0.0012100000000000001    -0.00149                 0                        0.04554256530724393
-0.00119                  -0.00149                 0                        0.04581441982957674
-0.00117                  -0.00149                 0                        0.04607713713011981
-0.00115                  -0.00149                 0                        0.046330717208873134
-0.00113                  -0.00149                 0                        0.04657501860155348
-0.00111                  -0.00149                 0                        0.04681082950161768
-0.00109                  -0.00149                 0                        0.047041650354134816
-0.00107                  -0.00149                 0                        0.04725988667020485
-0.0010500000000000002    -0.00149                 0                        0.04746929729418933
-0.00103                  -0.00149                 0                        0.047669875403654034
-0.00101                  -0.00149                 0                        0.04786161416571151
-9.9E-4                   -0.00149                 0                        0.048044506737000364
-9.7E-4                   -0.00149                 0                        0.0482185462636648
-9.5E-4                   -0.00149                 0                        0.04838372588133394
-9.3E-4                   -0.00149                 0                        0.04853893615655212
-9.1E-4                   -0.00149                 0                        0.06935187421875372
-8.900000000000001E-4     -0.00149                 0                        0.1250290093756332
-8.7E-4                   -0.00149                 0                        0.18437854857125652
-8.5E-4                   -0.00149                 0                        0.24830634856089456
-8.3E-4                   -0.00149                 0                        0.3179835811476843
-8.1E-4                   -0.00149                 0                        0.39237778648289073
-7.9E-4                   -0.00149                 0                        0.4721068897985366
-7.7E-4                   -0.00149                 0                        0.5605230884630161
-7.5E-4                   -0.00149                 0                        0.657881926802148
-7.3E-4                   -0.00149                 0                        0.7616037687063337
-7.1E-4                   -0.00149                 0                        0.8702182394490408
-6.9E-4                   -0.00149                 0                        0.989024068785506
-6.7E-4                   -0.00149                 0                        1.115383059461238
-6.5E-4                   -0.00149                 0                        1.2469567571501727
-6.3E-4                   -0.00149                 0                        1.385448104189932
-6.1E-4                   -0.00149                 0                        1.526336844301107
-5.9E-4                   -0.00149                 0                        1.6677844710934289
-5.7E-4                   -0.00149                 0                        1.8095804848604382
-5.499999999999999E-4     -0.00149                 0                        1.9489328691816579
-5.299999999999999E-4     -0.00149                 0                        2.0640972530862207
-5.1E-4                   -0.00149                 0                        2.1710305563954515
-4.9E-4                   -0.00149                 0                        2.277297549919464
-4.6999999999999993E-4    -0.00149                 0                        2.37597836406575
-4.499999999999999E-4     -0.00149                 0                        2.4691756976329877
-4.3000000000000004E-4    -0.00149                 0                        2.5559412488101723
-4.1E-4                   -0.00149                 0                        2.6346940468138667
-3.8999999999999994E-4    -0.00149                 0                        2.7101237974914754
-3.699999999999999E-4     -0.00149                 0                        2.7816507927382235
-3.5000000000000005E-4    -0.00149                 0                        2.84955829725921
-3.3E-4                   -0.00149                 0                        2.913815151686079
-3.0999999999999995E-4    -0.00149                 0                        2.9742486044426775
-2.899999999999999E-4     -0.00149                 0                        3.0313671124264387
-2.7000000000000006E-4    -0.00149                 0                        3.0835997332876444
-2.5E-4                   -0.00149                 0                        3.1335260310001716
-2.2999999999999995E-4    -0.00149                 0                        3.1803544157649366
-2.099999999999999E-4     -0.00149                 0                        3.2239828253146383
-1.8999999999999985E-4    -0.00149                 0                        3.264309838838631
-1.7E-4                   -0.00149                 0                        3.2929872754544394
-1.4999999999999996E-4    -0.00149                 0                        3.27051644418254
-1.299999999999999E-4     -0.00149                 0                        3.246278369316672
-1.0999999999999985E-4    -0.00149                 0                        3.2211134236735157
-9.000000000000002E-5     -0.00149                 0                        3.19587728806298
-6.999999999999997E-5     -0.00149                 0                        3.0760207454302493
-4.9999999999999914E-5    -0.00149                 0                        2.6886704299944855
-2.9999999999999862E-5    -0.00149                 0                        2.374907847675878
-1.0000000000000026E-5    -0.00149                 0                        2.1705011392753386
1.0000000000000026E-5     -0.00149                 0                        2.001793380838466
3.000000000000008E-5      -0.00149                 0                        1.86156416979035
5.000000000000013E-5      -0.00149                 0                        1.7394084318749687
6.999999999999997E-5      -0.00149                 0                        1.6351522137679244
9.000000000000002E-5      -0.00149                 0                        1.5423429798483828
1.1000000000000007E-4     -0.00149                 0                        1.4571736360510295
1.3000000000000012E-4     -0.00149                 0                        1.3797577642494285
1.5000000000000018E-4     -0.00149                 0                        1.3100166725110236
1.7E-4                    -0.00149                 0                        1.24851451633364
1.9000000000000006E-4     -0.00149                 0                        1.1822753117607396
2.1000000000000012E-4     -0.00149                 0                        1.1178608863441648
2.3000000000000017E-4     -0.00149                 0                        1.0572028950077919
2.5E-4                    -0.00149                 0                        1.0004666687020967
2.7000000000000006E-4     -0.00149                 0                        0.9477478055738261
2.900000000000001E-4      -0.00149                 0                        0.8981166230537458
3.1000000000000016E-4     -0.00149                 0                        0.8504342377896611
3.3E-4                    -0.00149                 0                        0.8049440974904502
3.5000000000000005E-4     -0.00149                 0                        0.7618272112605473
3.700000000000001E-4      -0.00149                 0                        0.7207017844718967
3.9000000000000016E-4     -0.00149                 0                        0.68128954074118
4.100000000000002E-4      -0.00149                 0                        0.6435904771845773
4.3000000000000004E-4     -0.00149                 0                        0.6074612196283312
4.500000000000003E-4      -0.00149                 0                        0.5728937179255341
4.6999999999999993E-4     -0.00149                 0                        0.5399234470570766
4.9E-4                    -0.00149                 0                        0.50848228870218
5.1E-4                    -0.00149                 0                        0.4779520630245334
5.300000000000001E-4      -0.00149                 0                        0.44830162627330916
5.500000000000001E-4      -0.00149                 0                        0.4199553716856347
5.700000000000002E-4      -0.00149                 0                        0.39280661522100546
5.900000000000002E-4      -0.00149                 0                        0.36666429923662286
6.100000000000003E-4      -0.00149                 0                        0.3412768719932641
6.299999999999999E-4      -0.00149                 0                        0.3167650155960164
6.5E-4                    -0.00149                 0                        0.29317483914162085
6.7E-4                    -0.00149                 0                        0.27033469052822146
6.900000000000001E-4      -0.00149                 0                        0.24821615701347854
7.100000000000001E-4      -0.00149                 0                        0.22679984960415314
7.300000000000002E-4      -0.00149                 0                        0.20613203474272773
7.500000000000002E-4      -0.00149                 0                        0.1860291298839618
7.700000000000003E-4      -0.00149                 0                        0.1665606927166292
7.900000000000003E-4      -0.00149                 0                        0.14772110711141262
8.1E-4                    -0.00149                 0                        0.12936508395603524
8.3E-4                    -0.00149                 0                        0.11156067120605101
8.500000000000001E-4      -0.00149                 0                        0.09421424884470841
8.700000000000001E-4      -0.00149                 0                        0.0773376648182567
8.900000000000002E-4      -0.00149                 0                        0.06094260820470807
9.100000000000002E-4      -0.00149                 0                        0.045040611655931304
9.300000000000003E-4      -0.00149                 0                        0.03882371064416313
9.500000000000003E-4      -0.00149                 0                        0.038601147604869636
9.699999999999999E-4      -0.00149                 0                        0.03837605452410219
9.9E-4                    -0.00149                 0                        0.03814804143986555
0.00101                   -0.00149                 0                        0.0379165064203638
0.00103                   -0.00149                 0                        0.03768111248551674
0.0010500000000000002     -0.00149                 0                        0.03744300467182138
0.0010700000000000002     -0.00149                 0                        0.03720329740548096
0.0010900000000000003     -0.00149                 0                        0.036959234866666024
0.0011100000000000003     -0.00149                 0                        0.036711030590584205
0.0011300000000000004     -0.00149                 0                        0.03645902891110204
0.00115                   -0.00149                 0                        0.03620490780184216
0.00117                   -0.00149                 0                        0.03594878036244026
0.00119                   -0.00149                 0                        0.03568947711534712
0.0012100000000000001     -0.00149                 0                        0.03542699806056275
0.0012300000000000002     -0.00149                 0                        0.03516114901941225
0.0012500000000000002     -0.00149                 0                        0.034891025127446976
0.0012700000000000003     -0.00149                 0                        0.03461711103138887
0.0012900000000000003     -0.00149                 0                        0.034339406731237955
0.00131                   -0.00149                 0                        0.034057015106275734
0.00133                   -0.00149                 0                        0.033771707522806706
0.00135                   -0.00149                 0                        0.03348469985606043
0.0013700000000000001     -0.00149                 0                        0.033195992106036895
0.0013900000000000002     -0.00149                 0                        0.03290558427273612
0.0014100000000000002     -0.00149                 0                        0.032613476356158085
0.0014300000000000003     -0.00149                 0                        0.032319668356302816
0.0014500000000000003     -0.00149                 0                        0.032024432291770065
0.0014700000000000004     -0.00149                 0                        0.03172695289398721
0.00149                   -0.00149                 0                        0.03142610611909314
0.00151                   -0.00149                 0                        0.031121696915710824
-0.00151                  -0.00147                 0                        0.04074592851070193
-0.00149                  -0.00147                 0                        0.04111704490377331
-0.00147                  -0.00147                 0                        0.04148157960970352
-0.0014500000000000001    -0.00147                 0                        0.04183723303541692
-0.00143                  -0.00147                 0                        0.042185777552201556
-0.00141                  -0.00147                 0                        0.042527213160057385