% Model:              cuff_3d_14electrodes.mph
% Version:            COMSOL 5.3.0.260
% Date:               Oct 1 2019, 23:02
% Dimension:          3
% Nodes:              23104
% Expressions:        1
% Description:        Electric potential
% Length unit:        m
% X                       Y                        Z                        V (V)
-0.00151                  -0.00151                 0                        0.013163038395380503
-0.00149                  -0.00151                 0                        0.013246490933188816
-0.00147                  -0.00151                 0                        0.013330301102618344
-0.0014500000000000001    -0.00151                 0                        0.013411868316661586
-0.00143                  -0.00151                 0                        0.013488955373705843
-0.00141                  -0.00151                 0                        0.013564205504181555
-0.00139                  -0.00151                 0                        0.013637618708088757
-0.0013700000000000001    -0.00151                 0                        0.013709194985427412
-0.00135                  -0.00151                 0                        0.013778915693650709
-0.00133                  -0.00151                 0                        0.013846571659297879
-0.00131                  -0.00151                 0                        0.013912242969683115
-0.0012900000000000001    -0.00151                 0                        0.013976052179665261
-0.00127                  -0.00151                 0                        0.014038647623986038
-0.00125                  -0.00151                 0                        0.014099851885268574
-0.00123                  -0.00151                 0                        0.014159546907953088
-0.0012100000000000001    -0.00151                 0                        0.014218016365040206
-0.00119                  -0.00151                 0                        0.014274652319017594
-0.00117                  -0.00151                 0                        0.014329454769885253
-0.00115                  -0.00151                 0                        0.014382204051180694
-0.00113                  -0.00151                 0                        0.014433052587016318
-0.00111                  -0.00151                 0                        0.01448231777108895
-0.00109                  -0.00151                 0                        0.014531321753258015
-0.00107                  -0.00151                 0                        0.014578331492369978
-0.0010500000000000002    -0.00151                 0                        0.014623518351276094
-0.00103                  -0.00151                 0                        0.014667443546659187
-0.00101                  -0.00151                 0                        0.014710105122626192
-9.9E-4                   -0.00151                 0                        0.014751501120337582
-9.7E-4                   -0.00151                 0                        0.014791629578001684
-9.5E-4                   -0.00151                 0                        0.01483048853086886
-9.3E-4                   -0.00151                 0                        0.014868438102707597
-9.1E-4                   -0.00151                 0                        0.014905651180870312
-8.900000000000001E-4     -0.00151                 0                        0.014942187378821008
-8.7E-4                   -0.00151                 0                        0.01716478254055128
-8.5E-4                   -0.00151                 0                        0.020197669016277887
-8.3E-4                   -0.00151                 0                        0.023215798030991885
-8.1E-4                   -0.00151                 0                        0.0262176278655712
-7.9E-4                   -0.00151                 0                        0.029196431635261703
-7.7E-4                   -0.00151                 0                        0.032159333242309296
-7.5E-4                   -0.00151                 0                        0.03511148593640986
-7.3E-4                   -0.00151                 0                        0.03804407428170681
-7.1E-4                   -0.00151                 0                        0.040944010890840016
-6.9E-4                   -0.00151                 0                        0.043830654990756515
-6.7E-4                   -0.00151                 0                        0.04669122257671951
-6.5E-4                   -0.00151                 0                        0.04951951161846092
-6.3E-4                   -0.00151                 0                        0.05231829090371976
-6.1E-4                   -0.00151                 0                        0.05508624208098189
-5.9E-4                   -0.00151                 0                        0.05782633694339908
-5.7E-4                   -0.00151                 0                        0.06053974742036083
-5.499999999999999E-4     -0.00151                 0                        0.06321775144261166
-5.299999999999999E-4     -0.00151                 0                        0.06585633125212334
-5.1E-4                   -0.00151                 0                        0.06846926106855136
-4.9E-4                   -0.00151                 0                        0.07103997241655965
-4.6999999999999993E-4    -0.00151                 0                        0.07356881115439416
-4.499999999999999E-4     -0.00151                 0                        0.07605598342632011
-4.3000000000000004E-4    -0.00151                 0                        0.07850282881435956
-4.1E-4                   -0.00151                 0                        0.08090907925857138
-3.8999999999999994E-4    -0.00151                 0                        0.08326667574669357
-3.699999999999999E-4     -0.00151                 0                        0.08557231571060402
-3.5000000000000005E-4    -0.00151                 0                        0.08782474817995055
-3.3E-4                   -0.00151                 0                        0.0900227202810848
-3.0999999999999995E-4    -0.00151                 0                        0.09216701379638369
-2.899999999999999E-4     -0.00151                 0                        0.09424727445588692
-2.7000000000000006E-4    -0.00151                 0                        0.09625982108919469
-2.5E-4                   -0.00151                 0                        0.09820494649311672
-2.2999999999999995E-4    -0.00151                 0                        0.10008376547688458
-2.099999999999999E-4     -0.00151                 0                        0.10189341667236365
-1.8999999999999985E-4    -0.00151                 0                        0.10362704799949143
-1.7E-4                   -0.00151                 0                        0.10529469009210615
-1.4999999999999996E-4    -0.00151                 0                        0.10687142300889015
-1.299999999999999E-4     -0.00151                 0                        0.10837611379528425
-1.0999999999999985E-4    -0.00151                 0                        0.10980139969495684
-9.000000000000002E-5     -0.00151                 0                        0.11114107136546422
-6.999999999999997E-5     -0.00151                 0                        0.11239050504889925
-4.9999999999999914E-5    -0.00151                 0                        0.11354579650573558
-2.9999999999999862E-5    -0.00151                 0                        0.11460788169024078
-1.0000000000000026E-5    -0.00151                 0                        0.11557451197341213
1.0000000000000026E-5     -0.00151                 0                        0.11643632068132022
3.000000000000008E-5      -0.00151                 0                        0.11719950316315617
5.000000000000013E-5      -0.00151                 0                        0.11786138334249147
6.999999999999997E-5      -0.00151                 0                        0.11841651277814369
9.000000000000002E-5      -0.00151                 0                        0.11885809476950246
1.1000000000000007E-4     -0.00151                 0                        0.11918703323193203
1.3000000000000012E-4     -0.00151                 0                        0.11939954668700441
1.5000000000000018E-4     -0.00151                 0                        0.11949154409385322
1.7E-4                    -0.00151                 0                        0.11947532758329937
1.9000000000000006E-4     -0.00151                 0                        0.11933350701981543
2.1000000000000012E-4     -0.00151                 0                        0.11905159911153947
2.3000000000000017E-4     -0.00151                 0                        0.1186610029408862
2.5E-4                    -0.00151                 0                        0.11814355652700947
2.7000000000000006E-4     -0.00151                 0                        0.11749782123854818
2.900000000000001E-4      -0.00151                 0                        0.11671188460229008
3.1000000000000016E-4     -0.00151                 0                        0.11578591096402469
3.3E-4                    -0.00151                 0                        0.11472168948927566
3.5000000000000005E-4     -0.00151                 0                        0.1135127476116319
3.700000000000001E-4      -0.00151                 0                        0.11216448687878787
3.9000000000000016E-4     -0.00151                 0                        0.11067921071474358
4.100000000000002E-4      -0.00151                 0                        0.1090568114090459
4.3000000000000004E-4     -0.00151                 0                        0.10727857220969327
4.500000000000003E-4      -0.00151                 0                        0.1053451963147666
4.6999999999999993E-4     -0.00151                 0                        0.1032647300164462
4.9E-4                    -0.00151                 0                        0.10105186501358238
5.1E-4                    -0.00151                 0                        0.09868838476870892
5.300000000000001E-4      -0.00151                 0                        0.0961654902314116
5.500000000000001E-4      -0.00151                 0                        0.09348459437797262
5.700000000000002E-4      -0.00151                 0                        0.09065247671179458
5.900000000000002E-4      -0.00151                 0                        0.08766273188946726
6.100000000000003E-4      -0.00151                 0                        0.08451785490778724
6.299999999999999E-4      -0.00151                 0                        0.0812132066211498
6.5E-4                    -0.00151                 0                        0.07774103458636936
6.7E-4                    -0.00151                 0                        0.07411536259593887
6.900000000000001E-4      -0.00151                 0                        0.07031316607258918
7.100000000000001E-4      -0.00151                 0                        0.0663371612509468
7.300000000000002E-4      -0.00151                 0                        0.06221191797068739
7.500000000000002E-4      -0.00151                 0                        0.057920056684137786
7.700000000000003E-4      -0.00151                 0                        0.0534610206051333
7.900000000000003E-4      -0.00151                 0                        0.0488293464625558
8.1E-4                    -0.00151                 0                        0.044026981604614365
8.3E-4                    -0.00151                 0                        0.03907495963038131
8.500000000000001E-4      -0.00151                 0                        0.03394918318254547
8.700000000000001E-4      -0.00151                 0                        0.02864840674038576
8.900000000000002E-4      -0.00151                 0                        0.024728700484572853
9.100000000000002E-4      -0.00151                 0                        0.024881763702132853
9.300000000000003E-4      -0.00151                 0                        0.02503096252113672
9.500000000000003E-4      -0.00151                 0                        0.025175753485400576
9.699999999999999E-4      -0.00151                 0                        0.025316059034818365
9.9E-4                    -0.00151                 0                        0.025452634398197952
0.00101                   -0.00151                 0                        0.025584491961459226
0.00103                   -0.00151                 0                        0.02571127062213341
0.0010500000000000002     -0.00151                 0                        0.025833055369528464
0.0010700000000000002     -0.00151                 0                        0.025949177504895587
0.0010900000000000003     -0.00151                 0                        0.026059118305667504
0.0011100000000000003     -0.00151                 0                        0.026162769648319855
0.0011300000000000004     -0.00151                 0                        0.026260444501059306
0.00115                   -0.00151                 0                        0.02635313211020944
0.00117                   -0.00151                 0                        0.02644059108854281
0.00119                   -0.00151                 0                        0.026521191507238168
0.0012100000000000001     -0.00151                 0                        0.026594933366295506
0.0012300000000000002     -0.00151                 0                        0.026661816665714825
0.0012500000000000002     -0.00151                 0                        0.026721332476463362
0.0012700000000000003     -0.00151                 0                        0.026773162806306695
0.0012900000000000003     -0.00151                 0                        0.026817362268890622
0.00131                   -0.00151                 0                        0.026854059404013565
0.00133                   -0.00151                 0                        0.02688417840576829
0.00135                   -0.00151                 0                        0.026907719274154796
0.0013700000000000001     -0.00151                 0                        0.026924682009173063
0.0013900000000000002     -0.00151                 0                        0.026935066610823115
0.0014100000000000002     -0.00151                 0                        0.026938873079104926
0.0014300000000000003     -0.00151                 0                        0.02693610141401852
0.0014500000000000003     -0.00151                 0                        0.02692675161556388
0.0014700000000000004     -0.00151                 0                        0.026909450685164094
0.00149                   -0.00151                 0                        0.026882116510520537
0.00151                   -0.00151                 0                        0.02684827233492772
-0.00151                  -0.00149                 0                        0.013221375925953772
-0.00149                  -0.00149                 0                        0.013302885176083136
-0.00147                  -0.00149                 0                        0.013385724720943027
-0.0014500000000000001    -0.00149                 0                        0.013462890384780745
-0.00143                  -0.00149                 0                        0.0135380544488157
-0.00141                  -0.00149                 0                        0.013611429760058467
-0.00139                  -0.00149                 0                        0.013682847190859543
-0.0013700000000000001    -0.00149                 0                        0.013752279966398684
-0.00135                  -0.00149                 0                        0.01381972808667591
-0.00133                  -0.00149                 0                        0.013885191551691201
-0.00131                  -0.00149                 0                        0.013948670361444555
-0.0012900000000000001    -0.00149                 0                        0.014010261824558532
-0.00127                  -0.00149                 0                        0.014070310809782617
-0.00125                  -0.00149                 0                        0.014128839119167552
-0.00123                  -0.00149                 0                        0.014186375672570967
-0.0012100000000000001    -0.00149                 0                        0.014242182060949021
-0.00119                  -0.00149                 0                        0.014296154946217339
-0.00117                  -0.00149                 0                        0.014348294328375916
-0.00115                  -0.00149                 0                        0.014398600207424764
-0.00113                  -0.00149                 0                        0.014446994706412173
-0.00111                  -0.00149                 0                        0.014493598069515994
-0.00109                  -0.00149                 0                        0.014539338891680489
-0.00107                  -0.00149                 0                        0.014582884148611985
-0.0010500000000000002    -0.00149                 0                        0.014625167338241114
-0.00103                  -0.00149                 0                        0.014666186504545979
-0.00101                  -0.00149                 0                        0.014705939688558349
-9.9E-4                   -0.00149                 0                        0.014744424928357902
-9.7E-4                   -0.00149                 0                        0.01478164025906646
-9.5E-4                   -0.00149                 0                        0.014817583712842204
-9.3E-4                   -0.00149                 0                        0.014852398853038861
-9.1E-4                   -0.00149                 0                        0.01610004586867483
-8.900000000000001E-4     -0.00149                 0                        0.019230263367276627
-8.7E-4                   -0.00149                 0                        0.02235078729702692
-8.5E-4                   -0.00149                 0                        0.025460613351115522
-8.3E-4                   -0.00149                 0                        0.028556636845040277
-8.1E-4                   -0.00149                 0                        0.03163569003731053
-7.9E-4                   -0.00149                 0                        0.03469496194156953
-7.7E-4                   -0.00149                 0                        0.03773436978292413
-7.5E-4                   -0.00149                 0                        0.040754758563666685
-7.3E-4                   -0.00149                 0                        0.04376358094458158
-7.1E-4                   -0.00149                 0                        0.04674795989306481
-6.9E-4                   -0.00149                 0                        0.04971247748705313
-6.7E-4                   -0.00149                 0                        0.05264852399329854
-6.5E-4                   -0.00149                 0                        0.055555621831370375
-6.3E-4                   -0.00149                 0                        0.05843981467105154
-6.1E-4                   -0.00149                 0                        0.06130153794165457
-5.9E-4                   -0.00149                 0                        0.06413621078322297
-5.7E-4                   -0.00149                 0                        0.06694028509714725
-5.499999999999999E-4     -0.00149                 0                        0.06970683704172105
-5.299999999999999E-4     -0.00149                 0                        0.07244515147783716
-5.1E-4                   -0.00149                 0                        0.07514766953921927
-4.9E-4                   -0.00149                 0                        0.07780545964959859
-4.6999999999999993E-4    -0.00149                 0                        0.08043519922394912
-4.499999999999999E-4     -0.00149                 0                        0.08302067074734718
-4.3000000000000004E-4    -0.00149                 0                        0.08556616725404835
-4.1E-4                   -0.00149                 0                        0.08807211959372382
-3.8999999999999994E-4    -0.00149                 0                        0.09052391846076246
-3.699999999999999E-4     -0.00149                 0                        0.09292487050444778
-3.5000000000000005E-4    -0.00149                 0                        0.09527268283558739
-3.3E-4                   -0.00149                 0                        0.09756626590384745
-3.0999999999999995E-4    -0.00149                 0                        0.09980395338599614
-2.899999999999999E-4     -0.00149                 0                        0.10197954840675735
-2.7000000000000006E-4    -0.00149                 0                        0.1040843169802323
-2.5E-4                   -0.00149                 0                        0.10612489214451583
-2.2999999999999995E-4    -0.00149                 0                        0.10809899559603599
-2.099999999999999E-4     -0.00149                 0                        0.11000373041254438
-1.8999999999999985E-4    -0.00149                 0                        0.11183618919321775
-1.7E-4                   -0.00149                 0                        0.11345155364375041
-1.4999999999999996E-4    -0.00149                 0                        0.11421356048120725
-1.299999999999999E-4     -0.00149                 0                        0.11499493222926957
-1.0999999999999985E-4    -0.00149                 0                        0.11579505669789586
-9.000000000000002E-5     -0.00149                 0                        0.11661334438027258
-6.999999999999997E-5     -0.00149                 0                        0.11744906141169605
-4.9999999999999914E-5    -0.00149                 0                        0.11830374763861178
-2.9999999999999862E-5    -0.00149                 0                        0.1191785829723351
-1.0000000000000026E-5    -0.00149                 0                        0.12007291761768282
1.0000000000000026E-5     -0.00149                 0                        0.12098566905464601
3.000000000000008E-5      -0.00149                 0                        0.12191816725582975
5.000000000000013E-5      -0.00149                 0                        0.1228693910351476
6.999999999999997E-5      -0.00149                 0                        0.12383887044684463
9.000000000000002E-5      -0.00149                 0                        0.12482616082174249
1.1000000000000007E-4     -0.00149                 0                        0.1258341719029127
1.3000000000000012E-4     -0.00149                 0                        0.12686261533258109
1.5000000000000018E-4     -0.00149                 0                        0.127910836109459
1.7E-4                    -0.00149                 0                        0.1289776559735139
1.9000000000000006E-4     -0.00149                 0                        0.1290519882719703
2.1000000000000012E-4     -0.00149                 0                        0.12883945910796918
2.3000000000000017E-4     -0.00149                 0                        0.1284996614441066
2.5E-4                    -0.00149                 0                        0.12803032476664955
2.7000000000000006E-4     -0.00149                 0                        0.12742971410693585
2.900000000000001E-4      -0.00149                 0                        0.12668885955791376
3.1000000000000016E-4     -0.00149                 0                        0.12580807629026555
3.3E-4                    -0.00149                 0                        0.12478594739364837
3.5000000000000005E-4     -0.00149                 0                        0.12361694091243132
3.700000000000001E-4      -0.00149                 0                        0.12230153634735953
3.9000000000000016E-4     -0.00149                 0                        0.12084940866513606
4.100000000000002E-4      -0.00149                 0                        0.11926055794213707
4.3000000000000004E-4     -0.00149                 0                        0.1175016653071914
4.500000000000003E-4      -0.00149                 0                        0.11558974908335701
4.6999999999999993E-4     -0.00149                 0                        0.11352255893925467
4.9E-4                    -0.00149                 0                        0.11131864785189949
5.1E-4                    -0.00149                 0                        0.10896437673235179
5.300000000000001E-4      -0.00149                 0                        0.10644343043557533
5.500000000000001E-4      -0.00149                 0                        0.10376625248295597
5.700000000000002E-4      -0.00149                 0                        0.10092215404015367
5.900000000000002E-4      -0.00149                 0                        0.09792534605537055
6.100000000000003E-4      -0.00149                 0                        0.09476325675917999
6.299999999999999E-4      -0.00149                 0                        0.09143806966098535
6.5E-4                    -0.00149                 0                        0.08796377525799923
6.7E-4                    -0.00149                 0                        0.08432676201859125
6.900000000000001E-4      -0.00149                 0                        0.08051814492762611
7.100000000000001E-4      -0.00149                 0                        0.0765265942544828
7.300000000000002E-4      -0.00149                 0                        0.07237213430105154
7.500000000000002E-4      -0.00149                 0                        0.06805058193982304
7.700000000000003E-4      -0.00149                 0                        0.06356156353950655
7.900000000000003E-4      -0.00149                 0                        0.05890403891274672
8.1E-4                    -0.00149                 0                        0.05407060968329909
8.3E-4                    -0.00149                 0                        0.04907373434937301
8.500000000000001E-4      -0.00149                 0                        0.043900939863437
8.700000000000001E-4      -0.00149                 0                        0.03855158981820654
8.900000000000002E-4      -0.00149                 0                        0.03302506701071758
9.100000000000002E-4      -0.00149                 0                        0.027320772903814343
9.300000000000003E-4      -0.00149                 0                        0.025135345777696865
9.500000000000003E-4      -0.00149                 0                        0.025286603898723448
9.699999999999999E-4      -0.00149                 0                        0.025434161760849724
9.9E-4                    -0.00149                 0                        0.025577540723058276
0.00101                   -0.00149                 0                        0.025716235258723977
0.00103                   -0.00149                 0                        0.025849908063132875
0.0010500000000000002     -0.00149                 0                        0.02597831355818153
0.0010700000000000002     -0.00149                 0                        0.026101018632664532
0.0010900000000000003     -0.00149                 0                        0.026217691623024997
0.0011100000000000003     -0.00149                 0                        0.026328218235162786
0.0011300000000000004     -0.00149                 0                        0.026432589709737758
0.00115                   -0.00149                 0                        0.026531285712683064
0.00117                   -0.00149                 0                        0.02662447246825285
0.00119                   -0.00149                 0                        0.026710800664184617
0.0012100000000000001     -0.00149                 0                        0.026790270300478362
0.0012300000000000002     -0.00149                 0                        0.026862824259978806
0.0012500000000000002     -0.00149                 0                        0.026927934907733916
0.0012700000000000003     -0.00149                 0                        0.026985574364039262
0.0012900000000000003     -0.00149                 0                        0.027035742628894837
0.00131                   -0.00149                 0                        0.027077516802628345
0.00133                   -0.00149                 0                        0.0271117466913271
0.00135                   -0.00149                 0                        0.027139398446657623
0.0013700000000000001     -0.00149                 0                        0.027160472068619924
0.0013900000000000002     -0.00149                 0                        0.02717496755721399
0.0014100000000000002     -0.00149                 0                        0.02718288491243984
0.0014300000000000003     -0.00149                 0                        0.027184224134297448
0.0014500000000000003     -0.00149                 0                        0.027177811312789967
0.0014700000000000004     -0.00149                 0                        0.027165172890941787
0.00149                   -0.00149                 0                        0.02714209123925597
0.00151                   -0.00149                 0                        0.02711018948144182
-0.00151                  -0.00147                 0                        0.013278244813583516
-0.00149                  -0.00147                 0                        0.013358256537270205
-0.00147                  -0.00147                 0                        0.01343622881110377