% Model:              cuff_3d_14electrodes.mph
% Version:            COMSOL 5.3.0.260
% Date:               Oct 1 2019, 23:04
% Dimension:          3
% Nodes:              23104
% Expressions:        1
% Description:        Electric potential
% Length unit:        m
% X                       Y                        Z                        V (V)
-0.00151                  -0.00151                 0                        0.035791225487070664
-0.00149                  -0.00151                 0                        0.035860209800977705
-0.00147                  -0.00151                 0                        0.035924342844416174
-0.0014500000000000001    -0.00151                 0                        0.03597737707429343
-0.00143                  -0.00151                 0                        0.03601237540766527
-0.00141                  -0.00151                 0                        0.0360364506185428
-0.00139                  -0.00151                 0                        0.03604960270692611
-0.0013700000000000001    -0.00151                 0                        0.03605183167281512
-0.00135                  -0.00151                 0                        0.036043060342452714
-0.00133                  -0.00151                 0                        0.036022628911700924
-0.00131                  -0.00151                 0                        0.03599103299065627
-0.0012900000000000001    -0.00151                 0                        0.03594852754479333
-0.00127                  -0.00151                 0                        0.0358974561751453
-0.00125                  -0.00151                 0                        0.03583735079207067
-0.00123                  -0.00151                 0                        0.03576763695256338
-0.0012100000000000001    -0.00151                 0                        0.0356885788089014
-0.00119                  -0.00151                 0                        0.03559941731695143
-0.00117                  -0.00151                 0                        0.03550015247671346
-0.00115                  -0.00151                 0                        0.035389352464771116
-0.00113                  -0.00151                 0                        0.03526808670591078
-0.00111                  -0.00151                 0                        0.03513695953675137
-0.00109                  -0.00151                 0                        0.03499839276003613
-0.00107                  -0.00151                 0                        0.03485142444174712
-0.0010500000000000002    -0.00151                 0                        0.03469556853565553
-0.00103                  -0.00151                 0                        0.034531706688484445
-0.00101                  -0.00151                 0                        0.034359831700421846
-9.9E-4                   -0.00151                 0                        0.034179936361915235
-9.7E-4                   -0.00151                 0                        0.033992013453653463
-9.5E-4                   -0.00151                 0                        0.03379605574654844
-9.3E-4                   -0.00151                 0                        0.03359417974638025
-9.1E-4                   -0.00151                 0                        0.03338628883928905
-8.900000000000001E-4     -0.00151                 0                        0.03317232416054006
-8.7E-4                   -0.00151                 0                        0.03984692033549063
-8.5E-4                   -0.00151                 0                        0.04877969231525058
-8.3E-4                   -0.00151                 0                        0.05732754400082232
-8.1E-4                   -0.00151                 0                        0.06549639188870236
-7.9E-4                   -0.00151                 0                        0.0733253508775558
-7.7E-4                   -0.00151                 0                        0.08081086898809937
-7.5E-4                   -0.00151                 0                        0.08797560031128583
-7.3E-4                   -0.00151                 0                        0.09480362376040657
-7.1E-4                   -0.00151                 0                        0.10126218247595181
-6.9E-4                   -0.00151                 0                        0.10739515972838173
-6.7E-4                   -0.00151                 0                        0.11319104239138686
-6.5E-4                   -0.00151                 0                        0.11864893293341221
-6.3E-4                   -0.00151                 0                        0.12378751966305393
-6.1E-4                   -0.00151                 0                        0.12863063812100622
-5.9E-4                   -0.00151                 0                        0.13316933535969758
-5.7E-4                   -0.00151                 0                        0.13740013987028885
-5.499999999999999E-4     -0.00151                 0                        0.14134557794304306
-5.299999999999999E-4     -0.00151                 0                        0.14501251479828955
-5.1E-4                   -0.00151                 0                        0.14840276198912497
-4.9E-4                   -0.00151                 0                        0.15151245846101052
-4.6999999999999993E-4    -0.00151                 0                        0.15437532357180314
-4.499999999999999E-4     -0.00151                 0                        0.1569736110360902
-4.3000000000000004E-4    -0.00151                 0                        0.1593046635736176
-4.1E-4                   -0.00151                 0                        0.1613786551364818
-3.8999999999999994E-4    -0.00151                 0                        0.16321434770697846
-3.699999999999999E-4     -0.00151                 0                        0.1648173961709127
-3.5000000000000005E-4    -0.00151                 0                        0.16619048609250392
-3.3E-4                   -0.00151                 0                        0.1673363506024648
-3.0999999999999995E-4    -0.00151                 0                        0.16826293531066935
-2.899999999999999E-4     -0.00151                 0                        0.16898978973359818
-2.7000000000000006E-4    -0.00151                 0                        0.16949640568251279
-2.5E-4                   -0.00151                 0                        0.16977564411271337
-2.2999999999999995E-4    -0.00151                 0                        0.16986726675729133
-2.099999999999999E-4     -0.00151                 0                        0.1697771339678507
-1.8999999999999985E-4    -0.00151                 0                        0.16950249864496875
-1.7E-4                   -0.00151                 0                        0.16909660102038843
-1.4999999999999996E-4    -0.00151                 0                        0.16847946312621814
-1.299999999999999E-4     -0.00151                 0                        0.16769641907972246
-1.0999999999999985E-4    -0.00151                 0                        0.1667502525807729
-9.000000000000002E-5     -0.00151                 0                        0.16565232538778624
-6.999999999999997E-5     -0.00151                 0                        0.16440747638184472
-4.9999999999999914E-5    -0.00151                 0                        0.16301411468197896
-2.9999999999999862E-5    -0.00151                 0                        0.161484262330219
-1.0000000000000026E-5    -0.00151                 0                        0.15982746828316477
1.0000000000000026E-5     -0.00151                 0                        0.15804925082618124
3.000000000000008E-5      -0.00151                 0                        0.1561399823650736
5.000000000000013E-5      -0.00151                 0                        0.1541146759194222
6.999999999999997E-5      -0.00151                 0                        0.15198064643174347
9.000000000000002E-5      -0.00151                 0                        0.1497362112523151
1.1000000000000007E-4     -0.00151                 0                        0.14738878504745584
1.3000000000000012E-4     -0.00151                 0                        0.14494567288558022
1.5000000000000018E-4     -0.00151                 0                        0.14241185119662583
1.7E-4                    -0.00151                 0                        0.13979961505945507
1.9000000000000006E-4     -0.00151                 0                        0.1371016195910791
2.1000000000000012E-4     -0.00151                 0                        0.13432079808087205
2.3000000000000017E-4     -0.00151                 0                        0.13147214782379082
2.5E-4                    -0.00151                 0                        0.12855537607608267
2.7000000000000006E-4     -0.00151                 0                        0.1255734327863631
2.900000000000001E-4      -0.00151                 0                        0.12251816539977115
3.1000000000000016E-4     -0.00151                 0                        0.11940496998093403
3.3E-4                    -0.00151                 0                        0.11624172916906367
3.5000000000000005E-4     -0.00151                 0                        0.11303339378605834
3.700000000000001E-4      -0.00151                 0                        0.10977598587169003
3.9000000000000016E-4     -0.00151                 0                        0.10646853759514094
4.100000000000002E-4      -0.00151                 0                        0.10311128053142428
4.3000000000000004E-4     -0.00151                 0                        0.09971507046659797
4.500000000000003E-4      -0.00151                 0                        0.09629163231560361
4.6999999999999993E-4     -0.00151                 0                        0.09284424793842214
4.9E-4                    -0.00151                 0                        0.08936926100495814
5.1E-4                    -0.00151                 0                        0.08586394114212582
5.300000000000001E-4      -0.00151                 0                        0.08232728108569755
5.500000000000001E-4      -0.00151                 0                        0.0787740947157791
5.700000000000002E-4      -0.00151                 0                        0.07521430999764583
5.900000000000002E-4      -0.00151                 0                        0.07161951716926115
6.100000000000003E-4      -0.00151                 0                        0.06801062075896873
6.299999999999999E-4      -0.00151                 0                        0.06439143005533335
6.5E-4                    -0.00151                 0                        0.06076629189259378
6.7E-4                    -0.00151                 0                        0.057122146776281205
6.900000000000001E-4      -0.00151                 0                        0.05345830893009422
7.100000000000001E-4      -0.00151                 0                        0.049779170674158116
7.300000000000002E-4      -0.00151                 0                        0.04611089849689618
7.500000000000002E-4      -0.00151                 0                        0.042430398297221936
7.700000000000003E-4      -0.00151                 0                        0.0387481629566786
7.900000000000003E-4      -0.00151                 0                        0.03505729526126039
8.1E-4                    -0.00151                 0                        0.03135375199653842
8.3E-4                    -0.00151                 0                        0.027656116648265963
8.500000000000001E-4      -0.00151                 0                        0.023958854695889566
8.700000000000001E-4      -0.00151                 0                        0.020262989908011612
8.900000000000002E-4      -0.00151                 0                        0.017558686232279682
9.100000000000002E-4      -0.00151                 0                        0.017484922801235526
9.300000000000003E-4      -0.00151                 0                        0.017410714588671328
9.500000000000003E-4      -0.00151                 0                        0.017335432493978946
9.699999999999999E-4      -0.00151                 0                        0.01725887508105208
9.9E-4                    -0.00151                 0                        0.017182510071041046
0.00101                   -0.00151                 0                        0.01710511168000034
0.00103                   -0.00151                 0                        0.017026495122983324
0.0010500000000000002     -0.00151                 0                        0.016947359368080988
0.0010700000000000002     -0.00151                 0                        0.01686737358044219
0.0010900000000000003     -0.00151                 0                        0.016785842178058466
0.0011100000000000003     -0.00151                 0                        0.016702645113909894
0.0011300000000000004     -0.00151                 0                        0.01661820589596216
0.00115                   -0.00151                 0                        0.016533147843800864
0.00117                   -0.00151                 0                        0.016447313279573935
0.00119                   -0.00151                 0                        0.016359954549008814
0.0012100000000000001     -0.00151                 0                        0.01627107165210549
0.0012300000000000002     -0.00151                 0                        0.016180664588863965
0.0012500000000000002     -0.00151                 0                        0.016088356686144632
0.0012700000000000003     -0.00151                 0                        0.015994024655192916
0.0012900000000000003     -0.00151                 0                        0.015897785607632182
0.00131                   -0.00151                 0                        0.01579985700983778
0.00133                   -0.00151                 0                        0.0157007439548401
0.00135                   -0.00151                 0                        0.015600446442639129
0.0013700000000000001     -0.00151                 0                        0.015498964473234858
0.0013900000000000002     -0.00151                 0                        0.015396298046627307
0.0014100000000000002     -0.00151                 0                        0.015292447162816462
0.0014300000000000003     -0.00151                 0                        0.015187411821802327
0.0014500000000000003     -0.00151                 0                        0.015081192023584902
0.0014700000000000004     -0.00151                 0                        0.01497329030327274
0.00149                   -0.00151                 0                        0.014862782754258518
0.00151                   -0.00151                 0                        0.01475114459536614
-0.00151                  -0.00149                 0                        0.03614615522984048
-0.00149                  -0.00149                 0                        0.036211879767260174
-0.00147                  -0.00149                 0                        0.03627389663392391
-0.0014500000000000001    -0.00149                 0                        0.03631487773413223
-0.00143                  -0.00149                 0                        0.03634449045706744
-0.00141                  -0.00149                 0                        0.036362819435740386
-0.00139                  -0.00149                 0                        0.036369918028619594
-0.0013700000000000001    -0.00149                 0                        0.036365852131205946
-0.00135                  -0.00149                 0                        0.0363506217434995
-0.00133                  -0.00149                 0                        0.0363242268655002
-0.00131                  -0.00149                 0                        0.03628666749720803
-0.0012900000000000001    -0.00149                 0                        0.03623828441230092
-0.00127                  -0.00149                 0                        0.03617978936609847
-0.00125                  -0.00149                 0                        0.03611120462042666
-0.00123                  -0.00149                 0                        0.03603458748321187
-0.0012100000000000001    -0.00149                 0                        0.035947845361005544
-0.00119                  -0.00149                 0                        0.035850999890511215
-0.00117                  -0.00149                 0                        0.03574405107172888
-0.00115                  -0.00149                 0                        0.03562699890465856
-0.00113                  -0.00149                 0                        0.03549930366573352
-0.00111                  -0.00149                 0                        0.035360680547017916
-0.00109                  -0.00149                 0                        0.03521366241740857
-0.00107                  -0.00149                 0                        0.03505729935728361
-0.0010500000000000002    -0.00149                 0                        0.03489293097002496
-0.00103                  -0.00149                 0                        0.03472055005687304
-0.00101                  -0.00149                 0                        0.03454014940933002
-9.9E-4                   -0.00149                 0                        0.03435172180914153
-9.7E-4                   -0.00149                 0                        0.03415526002827846
-9.5E-4                   -0.00149                 0                        0.03395075682891851
-9.3E-4                   -0.00149                 0                        0.0337401099085096
-9.1E-4                   -0.00149                 0                        0.03751479976239279
-8.900000000000001E-4     -0.00149                 0                        0.04722405086518319
-8.7E-4                   -0.00149                 0                        0.05655368302394139
-8.5E-4                   -0.00149                 0                        0.06554701174488974
-8.3E-4                   -0.00149                 0                        0.07415301732652625
-8.1E-4                   -0.00149                 0                        0.08234612387067611
-7.9E-4                   -0.00149                 0                        0.09016157077026335
-7.7E-4                   -0.00149                 0                        0.09762549267272014
-7.5E-4                   -0.00149                 0                        0.10473668155518237
-7.3E-4                   -0.00149                 0                        0.11155319616807588
-7.1E-4                   -0.00149                 0                        0.11802875015271991
-6.9E-4                   -0.00149                 0                        0.12412050398921856
-6.7E-4                   -0.00149                 0                        0.12985129223180183
-6.5E-4                   -0.00149                 0                        0.13525318765755065
-6.3E-4                   -0.00149                 0                        0.14033988049381374
-6.1E-4                   -0.00149                 0                        0.1451313732188701
-5.9E-4                   -0.00149                 0                        0.1496075848332365
-5.7E-4                   -0.00149                 0                        0.15377528258101092
-5.499999999999999E-4     -0.00149                 0                        0.1576683051691577
-5.299999999999999E-4     -0.00149                 0                        0.16125127714696627
-5.1E-4                   -0.00149                 0                        0.1645379797524675
-4.9E-4                   -0.00149                 0                        0.16754221986467804
-4.6999999999999993E-4    -0.00149                 0                        0.17031359767555793
-4.499999999999999E-4     -0.00149                 0                        0.17281594416613774
-4.3000000000000004E-4    -0.00149                 0                        0.17504914007266315
-4.1E-4                   -0.00149                 0                        0.17700374429755264
-3.8999999999999994E-4    -0.00149                 0                        0.17869822218360965
-3.699999999999999E-4     -0.00149                 0                        0.1801807026948708
-3.5000000000000005E-4    -0.00149                 0                        0.1814324381871248
-3.3E-4                   -0.00149                 0                        0.18245193828761774
-3.0999999999999995E-4    -0.00149                 0                        0.18323321074421806
-2.899999999999999E-4     -0.00149                 0                        0.1838070680076149
-2.7000000000000006E-4    -0.00149                 0                        0.1841843180277836
-2.5E-4                   -0.00149                 0                        0.18432623093383205
-2.2999999999999995E-4    -0.00149                 0                        0.18427499597828767
-2.099999999999999E-4     -0.00149                 0                        0.18403632049875857
-1.8999999999999985E-4    -0.00149                 0                        0.18361613708876612
-1.7E-4                   -0.00149                 0                        0.18278767031172236
-1.4999999999999996E-4    -0.00149                 0                        0.18054525961390652
-1.299999999999999E-4     -0.00149                 0                        0.17834889519921882
-1.0999999999999985E-4    -0.00149                 0                        0.1761995131706262
-9.000000000000002E-5     -0.00149                 0                        0.17409808385508682
-6.999999999999997E-5     -0.00149                 0                        0.17204485560776922
-4.9999999999999914E-5    -0.00149                 0                        0.17003377149854504
-2.9999999999999862E-5    -0.00149                 0                        0.1680635083111603
-1.0000000000000026E-5    -0.00149                 0                        0.166135377359638
1.0000000000000026E-5     -0.00149                 0                        0.16425184175032737
3.000000000000008E-5      -0.00149                 0                        0.16240850336502627
5.000000000000013E-5      -0.00149                 0                        0.1606079363800589
6.999999999999997E-5      -0.00149                 0                        0.15885119661675628
9.000000000000002E-5      -0.00149                 0                        0.15713499918620605
1.1000000000000007E-4     -0.00149                 0                        0.15545742320769032
1.3000000000000012E-4     -0.00149                 0                        0.1538195639007301
1.5000000000000018E-4     -0.00149                 0                        0.1522227535723048
1.7E-4                    -0.00149                 0                        0.15066555107523985
1.9000000000000006E-4     -0.00149                 0                        0.14798222158317192
2.1000000000000012E-4     -0.00149                 0                        0.14503182268982573
2.3000000000000017E-4     -0.00149                 0                        0.14201112838622806
2.5E-4                    -0.00149                 0                        0.1389241831315313
2.7000000000000006E-4     -0.00149                 0                        0.13577526194380335
2.900000000000001E-4      -0.00149                 0                        0.13255576061321564
3.1000000000000016E-4     -0.00149                 0                        0.12927587641082924
3.3E-4                    -0.00149                 0                        0.12594831543107693
3.5000000000000005E-4     -0.00149                 0                        0.122584566525095
3.700000000000001E-4      -0.00149                 0                        0.11917683804404683
3.9000000000000016E-4     -0.00149                 0                        0.11571969057994688
4.100000000000002E-4      -0.00149                 0                        0.11221312397836038
4.3000000000000004E-4     -0.00149                 0                        0.10865741952128863
4.500000000000003E-4      -0.00149                 0                        0.10507861043506397
4.6999999999999993E-4     -0.00149                 0                        0.1014740325826688
4.9E-4                    -0.00149                 0                        0.09785809101537327
5.1E-4                    -0.00149                 0                        0.0942130588999698
5.300000000000001E-4      -0.00149                 0                        0.09053158594139825
5.500000000000001E-4      -0.00149                 0                        0.08683684705893388
5.700000000000002E-4      -0.00149                 0                        0.08313619278426315
5.900000000000002E-4      -0.00149                 0                        0.07941618287822234
6.100000000000003E-4      -0.00149                 0                        0.07567259766537576
6.299999999999999E-4      -0.00149                 0                        0.07191918969296093
6.5E-4                    -0.00149                 0                        0.06816598699739204
6.7E-4                    -0.00149                 0                        0.06440725645439649
6.900000000000001E-4      -0.00149                 0                        0.06063390958443578
7.100000000000001E-4      -0.00149                 0                        0.0568434871687193
7.300000000000002E-4      -0.00149                 0                        0.053059875191527606
7.500000000000002E-4      -0.00149                 0                        0.049268151670518075
7.700000000000003E-4      -0.00149                 0                        0.0454749757847367
7.900000000000003E-4      -0.00149                 0                        0.04168008558274194
8.1E-4                    -0.00149                 0                        0.03787596726894431
8.3E-4                    -0.00149                 0                        0.034075153986759935
8.500000000000001E-4      -0.00149                 0                        0.030275489300432272
8.700000000000001E-4      -0.00149                 0                        0.02647821501175351
8.900000000000002E-4      -0.00149                 0                        0.02268455972545771
9.100000000000002E-4      -0.00149                 0                        0.018895738973200397
9.300000000000003E-4      -0.00149                 0                        0.017372190786051293
9.500000000000003E-4      -0.00149                 0                        0.01730037924103827
9.699999999999999E-4      -0.00149                 0                        0.01722834621211509
9.9E-4                    -0.00149                 0                        0.017155622682061965
0.00101                   -0.00149                 0                        0.017081895499305548
0.00103                   -0.00149                 0                        0.017007018485214
0.0010500000000000002     -0.00149                 0                        0.016931232627362014
0.0010700000000000002     -0.00149                 0                        0.016854663117562754
0.0010900000000000003     -0.00149                 0                        0.016776572086668173
0.0011100000000000003     -0.00149                 0                        0.01669693732667626
0.0011300000000000004     -0.00149                 0                        0.016615822602775332
0.00115                   -0.00149                 0                        0.016533766838628554
0.00117                   -0.00149                 0                        0.01645086713862344
0.00119                   -0.00149                 0                        0.01636644327228012
0.0012100000000000001     -0.00149                 0                        0.016280495239598607
0.0012300000000000002     -0.00149                 0                        0.016192961543825997
0.0012500000000000002     -0.00149                 0                        0.01610348359666083
0.0012700000000000003     -0.00149                 0                        0.016012167943777158
0.0012900000000000003     -0.00149                 0                        0.015919014585174997
0.00131                   -0.00149                 0                        0.01582360130530142
0.00133                   -0.00149                 0                        0.01572650615907396
0.00135                   -0.00149                 0                        0.015628226555643217
0.0013700000000000001     -0.00149                 0                        0.015528762495009181
0.0013900000000000002     -0.00149                 0                        0.015428113977171852
0.0014100000000000002     -0.00149                 0                        0.015326281002131237
0.0014300000000000003     -0.00149                 0                        0.01522326356988733
0.0014500000000000003     -0.00149                 0                        0.015118894457326709
0.0014700000000000004     -0.00149                 0                        0.015013113197490182
0.00149                   -0.00149                 0                        0.014904958758029016
0.00151                   -0.00149                 0                        0.014794664419881792
-0.00151                  -0.00147                 0                        0.036500591514851265
-0.00149                  -0.00147                 0                        0.03656264910378476
-0.00147                  -0.00147                 0                        0.03661311970363377
-0.0014500000000000001    -0.00147                 0                        0.036647748320143995