% Model:              cuff_3d_14electrodes.mph
% Version:            COMSOL 5.3.0.260
% Date:               Oct 1 2019, 23:03
% Dimension:          3
% Nodes:              23104
% Expressions:        1
% Description:        Electric potential
% Length unit:        m
% X                       Y                        Z                        V (V)
-0.00151                  -0.00151                 0                        0.02028598633679932
-0.00149                  -0.00151                 0                        0.020318742339269016
-0.00147                  -0.00151                 0                        0.020349793735632157
-0.0014500000000000001    -0.00151                 0                        0.02037535000833527
-0.00143                  -0.00151                 0                        0.020391834693943813
-0.00141                  -0.00151                 0                        0.020403255759219842
-0.00139                  -0.00151                 0                        0.020409613204163398
-0.0013700000000000001    -0.00151                 0                        0.020410907028774437
-0.00135                  -0.00151                 0                        0.020407108287584446
-0.00133                  -0.00151                 0                        0.02039791184343541
-0.00131                  -0.00151                 0                        0.020383457677499876
-0.0012900000000000001    -0.00151                 0                        0.020364115850986114
-0.00127                  -0.00151                 0                        0.020340845580581607
-0.00125                  -0.00151                 0                        0.020313393687724356
-0.00123                  -0.00151                 0                        0.020281529596415847
-0.0012100000000000001    -0.00151                 0                        0.02024543461326895
-0.00119                  -0.00151                 0                        0.02020470978965153
-0.00117                  -0.00151                 0                        0.02015935512556359
-0.00115                  -0.00151                 0                        0.020108822570007026
-0.00113                  -0.00151                 0                        0.02005350220340759
-0.00111                  -0.00151                 0                        0.019993793018592818
-0.00109                  -0.00151                 0                        0.019931377311003064
-0.00107                  -0.00151                 0                        0.0198646768229805
-0.0010500000000000002    -0.00151                 0                        0.019793781235126835
-0.00103                  -0.00151                 0                        0.019719348060335005
-0.00101                  -0.00151                 0                        0.019641373578282953
-9.9E-4                   -0.00151                 0                        0.019559854063555284
-9.7E-4                   -0.00151                 0                        0.019474785785633653
-9.5E-4                   -0.00151                 0                        0.019386165008887225
-9.3E-4                   -0.00151                 0                        0.019294961423387047
-9.1E-4                   -0.00151                 0                        0.019201188870577764
-8.900000000000001E-4     -0.00151                 0                        0.019104852872454694
-8.7E-4                   -0.00151                 0                        0.02187404236215786
-8.5E-4                   -0.00151                 0                        0.02563867552153438
-8.3E-4                   -0.00151                 0                        0.029307250742659764
-8.1E-4                   -0.00151                 0                        0.03288036212517946
-7.9E-4                   -0.00151                 0                        0.03635949121808199
-7.7E-4                   -0.00151                 0                        0.03974271769617667
-7.5E-4                   -0.00151                 0                        0.043039520257724076
-7.3E-4                   -0.00151                 0                        0.04624373390754091
-7.1E-4                   -0.00151                 0                        0.049340925193070255
-6.9E-4                   -0.00151                 0                        0.0523484323865473
-6.7E-4                   -0.00151                 0                        0.0552517800269536
-6.5E-4                   -0.00151                 0                        0.05804779552547926
-6.3E-4                   -0.00151                 0                        0.06074232765273121
-6.1E-4                   -0.00151                 0                        0.0633399582515399
-5.9E-4                   -0.00151                 0                        0.06583993594027948
-5.7E-4                   -0.00151                 0                        0.06824239715853637
-5.499999999999999E-4     -0.00151                 0                        0.07054671169680254
-5.299999999999999E-4     -0.00151                 0                        0.07274481503830041
-5.1E-4                   -0.00151                 0                        0.07485124044466293
-4.9E-4                   -0.00151                 0                        0.07685538691598488
-4.6999999999999993E-4    -0.00151                 0                        0.0787655649038772
-4.499999999999999E-4     -0.00151                 0                        0.08057324615355031
-4.3000000000000004E-4    -0.00151                 0                        0.0822782415423829
-4.1E-4                   -0.00151                 0                        0.08388411486489203
-3.8999999999999994E-4    -0.00151                 0                        0.08539108597258906
-3.699999999999999E-4     -0.00151                 0                        0.08679769082098716
-3.5000000000000005E-4    -0.00151                 0                        0.088104202225111
-3.3E-4                   -0.00151                 0                        0.08931090678467106
-3.0999999999999995E-4    -0.00151                 0                        0.09041644288486353
-2.899999999999999E-4     -0.00151                 0                        0.09142621105496111
-2.7000000000000006E-4    -0.00151                 0                        0.09233471516121562
-2.5E-4                   -0.00151                 0                        0.09313398127563755
-2.2999999999999995E-4    -0.00151                 0                        0.09383606320903741
-2.099999999999999E-4     -0.00151                 0                        0.09444172829559139
-1.8999999999999985E-4    -0.00151                 0                        0.09494963281603724
-1.7E-4                   -0.00151                 0                        0.09538427732814476
-1.4999999999999996E-4    -0.00151                 0                        0.0956984516228351
-1.299999999999999E-4     -0.00151                 0                        0.09592627041216628
-1.0999999999999985E-4    -0.00151                 0                        0.09606017826384085
-9.000000000000002E-5     -0.00151                 0                        0.0961007238179649
-6.999999999999997E-5     -0.00151                 0                        0.09604861138645385
-4.9999999999999914E-5    -0.00151                 0                        0.09590334849310257
-2.9999999999999862E-5    -0.00151                 0                        0.09566820701485025
-1.0000000000000026E-5    -0.00151                 0                        0.09534641027106476
1.0000000000000026E-5     -0.00151                 0                        0.0949380197446233
3.000000000000008E-5      -0.00151                 0                        0.09444165900725124
5.000000000000013E-5      -0.00151                 0                        0.09386109675798694
6.999999999999997E-5      -0.00151                 0                        0.09319704112312055
9.000000000000002E-5      -0.00151                 0                        0.09244864315632009
1.1000000000000007E-4     -0.00151                 0                        0.09161841119959241
1.3000000000000012E-4     -0.00151                 0                        0.09070792133509338
1.5000000000000018E-4     -0.00151                 0                        0.08972020236752269
1.7E-4                    -0.00151                 0                        0.08866238034673783
1.9000000000000006E-4     -0.00151                 0                        0.0875273313040459
2.1000000000000012E-4     -0.00151                 0                        0.08631527395990268
2.3000000000000017E-4     -0.00151                 0                        0.08503961962793842
2.5E-4                    -0.00151                 0                        0.08369405769903224
2.7000000000000006E-4     -0.00151                 0                        0.08227945638991589
2.900000000000001E-4      -0.00151                 0                        0.08079401498190375
3.1000000000000016E-4     -0.00151                 0                        0.07924321898450636
3.3E-4                    -0.00151                 0                        0.07762976131698496
3.5000000000000005E-4     -0.00151                 0                        0.0759543740573397
3.700000000000001E-4      -0.00151                 0                        0.07421972562774264
3.9000000000000016E-4     -0.00151                 0                        0.07242644189972523
4.100000000000002E-4      -0.00151                 0                        0.07057460022645061
4.3000000000000004E-4     -0.00151                 0                        0.06866701293698017
4.500000000000003E-4      -0.00151                 0                        0.06670759767032779
4.6999999999999993E-4     -0.00151                 0                        0.06469830047840046
4.9E-4                    -0.00151                 0                        0.06264319976239485
5.1E-4                    -0.00151                 0                        0.060540454602601386
5.300000000000001E-4      -0.00151                 0                        0.05838798002023702
5.500000000000001E-4      -0.00151                 0                        0.056192741072259814
5.700000000000002E-4      -0.00151                 0                        0.05395898361476381
5.900000000000002E-4      -0.00151                 0                        0.05167416635133848
6.100000000000003E-4      -0.00151                 0                        0.04935070933439975
6.299999999999999E-4      -0.00151                 0                        0.04698879790887759
6.5E-4                    -0.00151                 0                        0.044592005638703844
6.7E-4                    -0.00151                 0                        0.04215453179440099
6.900000000000001E-4      -0.00151                 0                        0.039672978051810505
7.100000000000001E-4      -0.00151                 0                        0.03715007542481203
7.300000000000002E-4      -0.00151                 0                        0.034605047433034414
7.500000000000002E-4      -0.00151                 0                        0.03202467584795256
7.700000000000003E-4      -0.00151                 0                        0.02941337223556841
7.900000000000003E-4      -0.00151                 0                        0.026767587589723175
8.1E-4                    -0.00151                 0                        0.024087606737538122
8.3E-4                    -0.00151                 0                        0.021383870055768278
8.500000000000001E-4      -0.00151                 0                        0.018653023513807765
8.700000000000001E-4      -0.00151                 0                        0.0158954958961608
8.900000000000002E-4      -0.00151                 0                        0.013873539028736325
9.100000000000002E-4      -0.00151                 0                        0.01386686813559216
9.300000000000003E-4      -0.00151                 0                        0.013859087306789808
9.500000000000003E-4      -0.00151                 0                        0.013849786643628287
9.699999999999999E-4      -0.00151                 0                        0.013838857010040782
9.9E-4                    -0.00151                 0                        0.013827158463131954
0.00101                   -0.00151                 0                        0.013813913949536486
0.00103                   -0.00151                 0                        0.013798961440002281
0.0010500000000000002     -0.00151                 0                        0.013782690136770673
0.0010700000000000002     -0.00151                 0                        0.013764826865468512
0.0010900000000000003     -0.00151                 0                        0.01374491200840475
0.0011100000000000003     -0.00151                 0                        0.013722865363951968
0.0011300000000000004     -0.00151                 0                        0.013698973640404503
0.00115                   -0.00151                 0                        0.013673724678948337
0.00117                   -0.00151                 0                        0.013646996601912861
0.00119                   -0.00151                 0                        0.013618136394353223
0.0012100000000000001     -0.00151                 0                        0.013587144056269413
0.0012300000000000002     -0.00151                 0                        0.013554019587661434
0.0012500000000000002     -0.00151                 0                        0.013518480984374689
0.0012700000000000003     -0.00151                 0                        0.013480413800030063
0.0012900000000000003     -0.00151                 0                        0.013439885245699652
0.00131                   -0.00151                 0                        0.013397038368052127
0.00133                   -0.00151                 0                        0.013352317508309956
0.00135                   -0.00151                 0                        0.013305722666473133
0.0013700000000000001     -0.00151                 0                        0.013257253842541651
0.0013900000000000002     -0.00151                 0                        0.01320691103651552
0.0014100000000000002     -0.00151                 0                        0.013154694248394733
0.0014300000000000003     -0.00151                 0                        0.013100603478179297
0.0014500000000000003     -0.00151                 0                        0.013044638725869202
0.0014700000000000004     -0.00151                 0                        0.012986321987927573
0.00149                   -0.00151                 0                        0.012924826532592252
0.00151                   -0.00151                 0                        0.012861502210683393
-0.00151                  -0.00149                 0                        0.02047594613685869
-0.00149                  -0.00149                 0                        0.020505918648830244
-0.00147                  -0.00149                 0                        0.020535236562531405
-0.0014500000000000001    -0.00149                 0                        0.020553770284820503
-0.00143                  -0.00149                 0                        0.020566991892690265
-0.00141                  -0.00149                 0                        0.02057516695623706
-0.00139                  -0.00149                 0                        0.020578107942716445
-0.0013700000000000001    -0.00149                 0                        0.02057579120740933
-0.00135                  -0.00149                 0                        0.020568216750315723
-0.00133                  -0.00149                 0                        0.020555384571435617
-0.00131                  -0.00149                 0                        0.020537294670769
-0.0012900000000000001    -0.00149                 0                        0.0205143138199661
-0.00127                  -0.00149                 0                        0.020486780154888504
-0.00125                  -0.00149                 0                        0.020454670968424297
-0.00123                  -0.00149                 0                        0.020418822032160597
-0.0012100000000000001    -0.00149                 0                        0.02037829279170185
-0.00119                  -0.00149                 0                        0.020333133710772583
-0.00117                  -0.00149                 0                        0.020283344789372774
-0.00115                  -0.00149                 0                        0.02022892602750246
-0.00113                  -0.00149                 0                        0.02016967337418811
-0.00111                  -0.00149                 0                        0.020105591167545452
-0.00109                  -0.00149                 0                        0.020038045806844915
-0.00107                  -0.00149                 0                        0.019965901009978977
-0.0010500000000000002    -0.00149                 0                        0.019890218829032344
-0.00103                  -0.00149                 0                        0.01981099554414365
-0.00101                  -0.00149                 0                        0.0197282274303592
-9.9E-4                   -0.00149                 0                        0.0196419107576234
-9.7E-4                   -0.00149                 0                        0.019552041790769154
-9.5E-4                   -0.00149                 0                        0.019458616789508207
-9.3E-4                   -0.00149                 0                        0.01936247786335499
-9.1E-4                   -0.00149                 0                        0.020891438283404756
-8.900000000000001E-4     -0.00149                 0                        0.02488913367388383
-8.7E-4                   -0.00149                 0                        0.028797946003837862
-8.5E-4                   -0.00149                 0                        0.032623310596124507
-8.3E-4                   -0.00149                 0                        0.036350607145281655
-8.1E-4                   -0.00149                 0                        0.03997456092526773
-7.9E-4                   -0.00149                 0                        0.043498702683871904
-7.7E-4                   -0.00149                 0                        0.04692332539060367
-7.5E-4                   -0.00149                 0                        0.05024864203402906
-7.3E-4                   -0.00149                 0                        0.053492419588301955
-7.1E-4                   -0.00149                 0                        0.05663978078465419
-6.9E-4                   -0.00149                 0                        0.05967997806938912
-6.7E-4                   -0.00149                 0                        0.06260936362709005
-6.5E-4                   -0.00149                 0                        0.06543523851997456
-6.3E-4                   -0.00149                 0                        0.06816471500620432
-6.1E-4                   -0.00149                 0                        0.07079959072955688
-5.9E-4                   -0.00149                 0                        0.07333452319415862
-5.7E-4                   -0.00149                 0                        0.07576967591753449
-5.499999999999999E-4     -0.00149                 0                        0.07810453158415397
-5.299999999999999E-4     -0.00149                 0                        0.08033327785277163
-5.1E-4                   -0.00149                 0                        0.08245680266365263
-4.9E-4                   -0.00149                 0                        0.08447620952174363
-4.6999999999999993E-4    -0.00149                 0                        0.08641118764754993
-4.499999999999999E-4     -0.00149                 0                        0.08823869893038713
-4.3000000000000004E-4    -0.00149                 0                        0.08996297032237399
-4.1E-4                   -0.00149                 0                        0.0915817805327698
-3.8999999999999994E-4    -0.00149                 0                        0.09309128973265522
-3.699999999999999E-4     -0.00149                 0                        0.09450451063247262
-3.5000000000000005E-4    -0.00149                 0                        0.09581730084783044
-3.3E-4                   -0.00149                 0                        0.09702857941048287
-3.0999999999999995E-4    -0.00149                 0                        0.09813135878501897
-2.899999999999999E-4     -0.00149                 0                        0.0991328705458348
-2.7000000000000006E-4    -0.00149                 0                        0.10003820159391089
-2.5E-4                   -0.00149                 0                        0.10083227651025144
-2.2999999999999995E-4    -0.00149                 0                        0.10152728812119356
-2.099999999999999E-4     -0.00149                 0                        0.10212393930688529
-1.8999999999999985E-4    -0.00149                 0                        0.10262300253716551
-1.7E-4                   -0.00149                 0                        0.10289631038595377
-1.4999999999999996E-4    -0.00149                 0                        0.10237832283460058
-1.299999999999999E-4     -0.00149                 0                        0.10187140688012067
-1.0999999999999985E-4    -0.00149                 0                        0.10137566286855894
-9.000000000000002E-5     -0.00149                 0                        0.1008912148497243
-6.999999999999997E-5     -0.00149                 0                        0.10041831937263894
-4.9999999999999914E-5    -0.00149                 0                        0.09995538743275999
-2.9999999999999862E-5    -0.00149                 0                        0.09950245721567336
-1.0000000000000026E-5    -0.00149                 0                        0.09905989686219033
1.0000000000000026E-5     -0.00149                 0                        0.09862825966134287
3.000000000000008E-5      -0.00149                 0                        0.09820678854116197
5.000000000000013E-5      -0.00149                 0                        0.09779613529448324
6.999999999999997E-5      -0.00149                 0                        0.09739657814349023
9.000000000000002E-5      -0.00149                 0                        0.09700768527376849
1.1000000000000007E-4     -0.00149                 0                        0.09662919800995179
1.3000000000000012E-4     -0.00149                 0                        0.09626141087560229
1.5000000000000018E-4     -0.00149                 0                        0.09590453414655878
1.7E-4                    -0.00149                 0                        0.09555889516664319
1.9000000000000006E-4     -0.00149                 0                        0.09448663203409705
2.1000000000000012E-4     -0.00149                 0                        0.0932216648272831
2.3000000000000017E-4     -0.00149                 0                        0.09188558884273212
2.5E-4                    -0.00149                 0                        0.09047942039749124
2.7000000000000006E-4     -0.00149                 0                        0.08900452611605646
2.900000000000001E-4      -0.00149                 0                        0.08745837823447289
3.1000000000000016E-4     -0.00149                 0                        0.08584489999076064
3.3E-4                    -0.00149                 0                        0.08416817056545317
3.5000000000000005E-4     -0.00149                 0                        0.08243239119705306
3.700000000000001E-4      -0.00149                 0                        0.08063742335736593
3.9000000000000016E-4     -0.00149                 0                        0.07878380476002876
4.100000000000002E-4      -0.00149                 0                        0.07687153535361607
4.3000000000000004E-4     -0.00149                 0                        0.07489438502858284
4.500000000000003E-4      -0.00149                 0                        0.07286584877926298
4.6999999999999993E-4     -0.00149                 0                        0.07078518817899986
4.9E-4                    -0.00149                 0                        0.0686645439792303
5.1E-4                    -0.00149                 0                        0.06649672073899143
5.300000000000001E-4      -0.00149                 0                        0.0642753852824206
5.500000000000001E-4      -0.00149                 0                        0.06201096365295563
5.700000000000002E-4      -0.00149                 0                        0.05970603357506157
5.900000000000002E-4      -0.00149                 0                        0.05735741050773001
6.100000000000003E-4      -0.00149                 0                        0.05496367480218492
6.299999999999999E-4      -0.00149                 0                        0.05253183583288656
6.5E-4                    -0.00149                 0                        0.05006883639307472
6.7E-4                    -0.00149                 0                        0.047571377336297134
6.900000000000001E-4      -0.00149                 0                        0.04503302482922447
7.100000000000001E-4      -0.00149                 0                        0.042451035231746606
7.300000000000002E-4      -0.00149                 0                        0.03984238836123716
7.500000000000002E-4      -0.00149                 0                        0.037199725442276295
7.700000000000003E-4      -0.00149                 0                        0.03452622404407775
7.900000000000003E-4      -0.00149                 0                        0.03182168495614184
8.1E-4                    -0.00149                 0                        0.02908242709314788
8.3E-4                    -0.00149                 0                        0.02631726737798194
8.500000000000001E-4      -0.00149                 0                        0.02352515046579843
8.700000000000001E-4      -0.00149                 0                        0.02070663034599217
8.900000000000002E-4      -0.00149                 0                        0.017862257084382847
9.100000000000002E-4      -0.00149                 0                        0.014992576803535829
9.300000000000003E-4      -0.00149                 0                        0.013860243484267357
9.500000000000003E-4      -0.00149                 0                        0.013853874712365273
9.699999999999999E-4      -0.00149                 0                        0.013846525870715932
9.9E-4                    -0.00149                 0                        0.013837901430914245
0.00101                   -0.00149                 0                        0.013827753315832171
0.00103                   -0.00149                 0                        0.013815942542996376
0.0010500000000000002     -0.00149                 0                        0.013802560119374026
0.0010700000000000002     -0.00149                 0                        0.01378761880186364
0.0010900000000000003     -0.00149                 0                        0.01377066112004512
0.0011100000000000003     -0.00149                 0                        0.013751661021997466
0.0011300000000000004     -0.00149                 0                        0.013730653490499078
0.00115                   -0.00149                 0                        0.013708012488717539
0.00117                   -0.00149                 0                        0.01368381380712132
0.00119                   -0.00149                 0                        0.013657482995000934
0.0012100000000000001     -0.00149                 0                        0.013629020052356377
0.0012300000000000002     -0.00149                 0                        0.013598383272560792
0.0012500000000000002     -0.00149                 0                        0.013565299352698547
0.0012700000000000003     -0.00149                 0                        0.013529820923654052
0.0012900000000000003     -0.00149                 0                        0.013491947985427315
0.00131                   -0.00149                 0                        0.01345130212772246
0.00133                   -0.00149                 0                        0.013408351191826087
0.00135                   -0.00149                 0                        0.013363526273835061
0.0013700000000000001     -0.00149                 0                        0.013316827373749382
0.0013900000000000002     -0.00149                 0                        0.01326825449156905
0.0014100000000000002     -0.00149                 0                        0.013217807627294062
0.0014300000000000003     -0.00149                 0                        0.013165486780924421
0.0014500000000000003     -0.00149                 0                        0.013111034593664916
0.0014700000000000004     -0.00149                 0                        0.013054630216629236
0.00149                   -0.00149                 0                        0.01299512252844193
0.00151                   -0.00149                 0                        0.012932868429601964
-0.00151                  -0.00147                 0                        0.020665936744389934
-0.00149                  -0.00147                 0                        0.020693521196640165
-0.00147                  -0.00147                 0                        0.02071564461713585